Variables = x, y, u, v, umag, p
ZONE I= 101 J= 101 F=point
0 0 9.85938e-07 3.36354e-06 3.50507e-06 0.00780613
0.01 0 0 0 0 0.0104192
0.02 0 0 0 0 0.0104329
0.03 0 0 0 0 0.0104216
0.04 0 -8.47033e-22 0 8.47033e-22 0.0103742
0.05 0 8.47033e-22 -8.47033e-22 1.19789e-21 0.01029
0.06 0 8.47033e-22 -8.47033e-22 1.19789e-21 0.0101766
0.07 0 0 4.23516e-22 4.23516e-22 0.0100434
0.08 0 -1.69407e-21 2.11758e-22 1.70725e-21 0.00989766
0.09 0 3.38813e-21 0 3.38813e-21 0.00974458
0.1 0 0 0 0 0.00958846
0.11 0 6.77626e-21 0 6.77626e-21 0.00943367
0.12 0 1.35525e-20 0 1.35525e-20 0.00928324
0.13 0 -1.35525e-20 -8.47033e-22 1.3579e-20 0.0091391
0.14 0 0 8.47033e-22 8.47033e-22 0.0090031
0.15 0 0 0 0 0.00887682
0.16 0 2.71051e-20 0 2.71051e-20 0.00876156
0.17 0 0 8.47033e-22 8.47033e-22 0.00865836
0.18 0 0 0 0 0.00856801
0.19 0 0 0 0 0.00849124
0.2 0 0 1.69407e-21 1.69407e-21 0.00842882
0.21 0 5.42101e-20 1.69407e-21 5.42366e-20 0.00838173
0.22 0 0 -1.69407e-21 1.69407e-21 0.00835081
0.23 0 0 1.69407e-21 1.69407e-21 0.00833541
0.24 0 -5.42101e-20 1.69407e-21 5.42366e-20 0.00833292
0.25 0 0 1.69407e-21 1.69407e-21 0.00834272
0.26 0 0 0 0 0.00836777
0.27 0 -5.42101e-20 1.69407e-21 5.42366e-20 0.00840989
0.28 0 -1.0842e-19 0 1.0842e-19 0.0084685
0.29 0 0 0 0 0.00854288
0.3 0 0 0 0 0.00863275
0.31 0 1.0842e-19 0 1.0842e-19 0.0087381
0.32 0 0 1.69407e-21 1.69407e-21 0.00885894
0.33 0 0 1.69407e-21 1.69407e-21 0.00899525
0.34 0 0 1.69407e-21 1.69407e-21 0.00914694
0.35 0 -1.0842e-19 -1.69407e-21 1.08433e-19 0.00931389
0.36 0 0 -1.69407e-21 1.69407e-21 0.00949593
0.37 0 0 1.69407e-21 1.69407e-21 0.00969287
0.38 0 -1.0842e-19 0 1.0842e-19 0.00990445
0.39 0 0 -1.69407e-21 1.69407e-21 0.0101303
0.4 0 0 0 0 0.0103702
0.41 0 -1.0842e-19 0 1.0842e-19 0.0106235
0.42 0 0 0 0 0.0108897
0.43 0 1.0842e-19 0 1.0842e-19 0.0111683
0.44 0 -1.0842e-19 8.47033e-22 1.08424e-19 0.0114585
0.45 0 0 0 0 0.0117595
0.46 0 0 4.23516e-22 4.23516e-22 0.0120705
0.47 0 0 -4.23516e-22 4.23516e-22 0.0123904
0.48 0 1.0842e-19 2.11758e-22 1.0842e-19 0.0127182
0.49 0 -1.0842e-19 5.29396e-23 1.0842e-19 0.0130528
0.5 0 1.0842e-19 -1.05879e-22 1.0842e-19 0.0133928
0.51 0 -1.0842e-19 0 1.0842e-19 0.013737
0.52 0 0 0 0 0.0140842
0.53 0 1.0842e-19 -4.23516e-22 1.08421e-19 0.0144329
0.54 0 0 -8.47033e-22 8.47033e-22 0.014781
0.55 0 0 -8.47033e-22 8.47033e-22 0.0151267
0.56 0 1.0842e-19 -8.47033e-22 1.08424e-19 0.0154684
0.57 0 0 0 0 0.0158045
0.58 0 1.0842e-19 0 1.0842e-19 0.0161332
0.59 0 0 0 0 0.0164527
0.6 0 0 0 0 0.0167613
0.61 0 0 0 0 0.0170573
0.62 0 -1.0842e-19 1.69407e-21 1.08433e-19 0.0173389
0.63 0 0 0 0 0.0176044
0.64 0 0 -1.69407e-21 1.69407e-21 0.0178523
0.65 0 0 0 0 0.0180811
0.66 0 -1.0842e-19 0 1.0842e-19 0.0182894
0.67 0 0 0 0 0.0184759
0.68 0 0 3.38813e-21 3.38813e-21 0.0186397
0.69 0 -1.0842e-19 0 1.0842e-19 0.0187799
0.7 0 0 0 0 0.0188956
0.71 0 0 3.38813e-21 3.38813e-21 0.0189856
0.72 0 0 -3.38813e-21 3.38813e-21 0.0190482
0.73 0 -5.42101e-20 0 5.42101e-20 0.0190825
0.74 0 -5.42101e-20 0 5.42101e-20 0.019093
0.75 0 0 3.38813e-21 3.38813e-21 0.0190846
0.76 0 5.42101e-20 0 5.42101e-20 0.0190541
0.77 0 0 0 0 0.0189976
0.78 0 2.71051e-20 1.69407e-21 2.71579e-20 0.0189163
0.79 0 2.71051e-20 0 2.71051e-20 0.0188124
0.8 0 0 1.69407e-21 1.69407e-21 0.0186883
0.81 0 -2.71051e-20 0 2.71051e-20 0.018546
0.82 0 0 0 0 0.0183873
0.83 0 0 0 0 0.0182144
0.84 0 -1.35525e-20 0 1.35525e-20 0.0180297
0.85 0 -6.77626e-21 0 6.77626e-21 0.0178356
0.86 0 3.38813e-21 -8.47033e-22 3.49241e-21 0.0176347
0.87 0 -3.38813e-21 -4.23516e-22 3.4145e-21 0.0174297
0.88 0 4.23516e-22 0 4.23516e-22 0.0172241
0.89 0 0 -5.29396e-23 5.29396e-23 0.0170221
0.9 0 0 0 0 0.0168271
0.91 0 0 0 0 0.0166426
0.92 0 3.38813e-21 0 3.38813e-21 0.0164726
0.93 0 0 8.47033e-22 8.47033e-22 0.0163218
0.94 0 0 0 0 0.0161958
0.95 0 -1.69407e-21 0 1.69407e-21 0.016101
0.96 0 1.69407e-21 0 1.69407e-21 0.0160427
0.97 0 -3.17637e-22 0 3.17637e-22 0.0160195
0.98 0 0 -8.47033e-22 8.47033e-22 0.0160313
0.99 0 0 8.47033e-22 8.47033e-22 0.0160751
1 0 2.27833e-06 -2.75847e-06 3.5777e-06 0.0120774
0 0.01 0 0 0 0.0104202
0.01 0.01 -7.54413e-06 -4.15302e-05 4.22099e-05 0.01043
0.02 0.01 -5.75143e-06 -6.00957e-05 6.03703e-05 0.0104411
0.03 0.01 3.23575e-06 -6.24089e-05 6.24927e-05 0.0104284
0.04 0.01 1.03352e-05 -5.51066e-05 5.60674e-05 0.010382
0.05 0.01 6.41751e-06 -4.31535e-05 4.3628e-05 0.0103012
0.06 0.01 -1.47416e-05 -2.93908e-05 3.28806e-05 0.0101934
0.07 0.01 -5.57961e-05 -1.50743e-05 5.77965e-05 0.0100668
0.08 0.01 -0.000117223 -7.73663e-07 0.000117226 0.00992809
0.09 0.01 -0.000198635 1.31452e-05 0.000199069 0.00978211
0.1 0.01 -0.000299312 2.64854e-05 0.000300481 0.00963306
0.11 0.01 -0.000418105 3.9177e-05 0.000419936 0.00948502
0.12 0.01 -0.000553522 5.11092e-05 0.000555877 0.00934084
0.13 0.01 -0.000704107 6.21714e-05 0.000706847 0.00920245
0.14 0.01 -0.000868515 7.23143e-05 0.00087152 0.00907168
0.15 0.01 -0.00104541 8.15217e-05 0.00104858 0.00895012
0.16 0.01 -0.00123344 8.98031e-05 0.00123671 0.00883907
0.17 0.01 -0.00143132 9.71882e-05 0.00143462 0.00873958
0.18 0.01 -0.00163782 0.000103727 0.0016411 0.00865248
0.19 0.01 -0.0018518 0.000109493 0.00185503 0.00857848
0.2 0.01 -0.00207216 0.000114566 0.00207533 0.00851833
0.21 0.01 -0.00229767 0.000119 0.00230075 0.00847299
0.22 0.01 -0.00252675 0.000122793 0.00252973 0.00844332
0.23 0.01 -0.00275782 0.0001259 0.00276069 0.00842874
0.24 0.01 -0.00299036 0.000128191 0.0029931 0.00842685
0.25 0.01 -0.00322476 0.000129568 0.00322736 0.00843719
0.26 0.01 -0.0034607 0.000130209 0.00346315 0.00846255
0.27 0.01 -0.0036967 0.000130381 0.003699 0.00850448
0.28 0.01 -0.00393136 0.000130175 0.00393351 0.00856243
0.29 0.01 -0.00416378 0.000129549 0.00416579 0.00863577
0.3 0.01 -0.00439329 0.000128447 0.00439517 0.00872431
0.31 0.01 -0.00461923 0.00012684 0.00462097 0.00882805
0.32 0.01 -0.00484087 0.000124722 0.00484248 0.00894699
0.33 0.01 -0.00505747 0.000122092 0.00505894 0.0090811
0.34 0.01 -0.00526827 0.000118948 0.00526962 0.00923029
0.35 0.01 -0.00547254 0.000115286 0.00547376 0.00939444
0.36 0.01 -0.00566952 0.000111099 0.00567061 0.00957338
0.37 0.01 -0.00585846 0.000106383 0.00585942 0.00976691
0.38 0.01 -0.0060386 0.000101135 0.00603945 0.00997477
0.39 0.01 -0.00620919 9.53523e-05 0.00620992 0.0101967
0.4 0.01 -0.00636948 8.90357e-05 0.0063701 0.0104322
0.41 0.01 -0.00651872 8.21876e-05 0.00651924 0.0106809
0.42 0.01 -0.00665617 7.4814e-05 0.00665659 0.0109422
0.43 0.01 -0.0067811 6.69244e-05 0.00678143 0.0112156
0.44 0.01 -0.00689281 5.85326e-05 0.00689306 0.0115003
0.45 0.01 -0.00699062 4.96566e-05 0.0069908 0.0117957
0.46 0.01 -0.00707388 4.032e-05 0.007074 0.0121007
0.47 0.01 -0.00714198 3.05523e-05 0.00714204 0.0124144
0.48 0.01 -0.00719434 2.03917e-05 0.00719437 0.0127358
0.49 0.01 -0.00723046 9.88985e-06 0.00723047 0.0130638
0.5 0.01 -0.00724994 -8.79944e-07 0.00724994 0.0133969
0.51 0.01 -0.00725242 -1.19383e-05 0.00725243 0.0137342
0.52 0.01 -0.00723742 -2.32642e-05 0.00723746 0.0140744
0.53 0.01 -0.00720446 -3.47236e-05 0.00720454 0.0144161
0.54 0.01 -0.00715337 -4.62582e-05 0.00715352 0.014757
0.55 0.01 -0.00708426 -5.78406e-05 0.0070845 0.0150955
0.56 0.01 -0.00699726 -6.9412e-05 0.0069976 0.0154301
0.57 0.01 -0.00689249 -8.08886e-05 0.00689297 0.0157592
0.58 0.01 -0.00677019 -9.21846e-05 0.00677082 0.016081
0.59 0.01 -0.00663071 -0.000103214 0.00663151 0.0163938
0.6 0.01 -0.0064745 -0.000113892 0.0064755 0.0166959
0.61 0.01 -0.00630215 -0.000124131 0.00630337 0.0169856
0.62 0.01 -0.00611435 -0.000133847 0.00611582 0.0172612
0.63 0.01 -0.00591193 -0.000142957 0.00591366 0.0175211
0.64 0.01 -0.0056958 -0.000151376 0.00569781 0.0177638
0.65 0.01 -0.00546702 -0.000159028 0.00546933 0.0179878
0.66 0.01 -0.00522674 -0.000165834 0.00522937 0.0181918
0.67 0.01 -0.0049762 -0.00017172 0.00497916 0.0183745
0.68 0.01 -0.00471676 -0.000176619 0.00472006 0.0185351
0.69 0.01 -0.00444978 -0.000180492 0.00445343 0.0186725
0.7 0.01 -0.00417662 -0.000183351 0.00418064 0.0187861
0.71 0.01 -0.00389875 -0.000185254 0.00390315 0.0188748
0.72 0.01 -0.00361817 -0.000186203 0.00362296 0.018937
0.73 0.01 -0.00333783 -0.000185977 0.00334301 0.0189718
0.74 0.01 -0.00306022 -0.000184118 0.00306575 0.0189832
0.75 0.01 -0.0027854 -0.00018042 0.00279124 0.0189757
0.76 0.01 -0.00251301 -0.000175206 0.00251911 0.0189467
0.77 0.01 -0.00224491 -0.000168825 0.00225125 0.0188926
0.78 0.01 -0.00198399 -0.000161407 0.00199054 0.0188145
0.79 0.01 -0.00173255 -0.00015299 0.00173929 0.0187146
0.8 0.01 -0.00149221 -0.000143566 0.0014991 0.0185951
0.81 0.01 -0.00126438 -0.000133138 0.00127137 0.018458
0.82 0.01 -0.00105038 -0.000121742 0.00105741 0.018305
0.83 0.01 -0.000851504 -0.000109457 0.00085851 0.0181383
0.84 0.01 -0.000668939 -9.63872e-05 0.000675848 0.0179602
0.85 0.01 -0.000503734 -8.26575e-05 0.000510471 0.0177731
0.86 0.01 -0.000356834 -6.84095e-05 0.000363332 0.0175796
0.87 0.01 -0.000229167 -5.37927e-05 0.000235396 0.0173822
0.88 0.01 -0.000121466 -3.89289e-05 0.000127552 0.0171845
0.89 0.01 -3.40213e-05 -2.39151e-05 4.15858e-05 0.01699
0.9 0.01 3.31905e-05 -8.91527e-06 3.4367e-05 0.0168023
0.91 0.01 8.0386e-05 5.81954e-06 8.05964e-05 0.0166249
0.92 0.01 0.000108053 2.00365e-05 0.000109895 0.0164616
0.93 0.01 0.000117063 3.35259e-05 0.000121769 0.0163168
0.94 0.01 0.000109004 4.60181e-05 0.000118319 0.0161956
0.95 0.01 8.69002e-05 5.67886e-05 0.00010381 0.0161037
0.96 0.01 5.6005e-05 6.42096e-05 8.52023e-05 0.016046
0.97 0.01 2.28897e-05 6.55697e-05 6.94501e-05 0.0160216
0.98 0.01 -4.3419e-06 5.77316e-05 5.78946e-05 0.0160304
0.99 0.01 -1.30987e-05 3.69658e-05 3.9218e-05 0.01607
1 0.01 0 0 0 0.0160963
0 0.02 0 0 0 0.0104609
0.01 0.02 -1.45004e-05 -8.21873e-05 8.34567e-05 0.010468
0.02 0.02 -2.03383e-05 -0.000116902 0.000118658 0.0104735
0.03 0.02 -2.22136e-05 -0.000117623 0.000119702 0.0104571
0.04 0.02 -3.29699e-05 -9.71928e-05 0.000102633 0.0104116
0.05 0.02 -6.5196e-05 -6.53882e-05 9.23371e-05 0.0103375
0.06 0.02 -0.000127608 -2.81565e-05 0.000130677 0.010241
0.07 0.02 -0.000224468 1.13144e-05 0.000224753 0.0101283
0.08 0.02 -0.000357185 5.12457e-05 0.000360842 0.0100045
0.09 0.02 -0.000525655 9.05156e-05 0.000533391 0.00987392
0.1 0.02 -0.000728926 0.000128429 0.000740153 0.00974012
0.11 0.02 -0.000965312 0.000164513 0.00097923 0.0096065
0.12 0.02 -0.00123252 0.000198353 0.00124837 0.00947579
0.13 0.02 -0.00152807 0.000229675 0.00154523 0.00934994
0.14 0.02 -0.00184955 0.000258351 0.00186751 0.00923066
0.15 0.02 -0.00219455 0.00028434 0.0022129 0.00911953
0.16 0.02 -0.00256064 0.000307669 0.00257905 0.00901785
0.17 0.02 -0.00294541 0.000328413 0.00296366 0.00892667
0.18 0.02 -0.00334656 0.000346688 0.00336447 0.00884685
0.19 0.02 -0.00376189 0.000362643 0.00377933 0.00877907
0.2 0.02 -0.00418929 0.000376433 0.00420617 0.00872404
0.21 0.02 -0.00462646 0.000388173 0.00464271 0.00868269
0.22 0.02 -0.00507066 0.000397916 0.00508625 0.00865597
0.23 0.02 -0.00551935 0.000405675 0.00553424 0.00864335
0.24 0.02 -0.0059714 0.000411319 0.00598555 0.00864274
0.25 0.02 -0.00642665 0.000414731 0.00644002 0.00865418
0.26 0.02 -0.00688397 0.00041618 0.00689654 0.00868007
0.27 0.02 -0.00734094 0.00041607 0.00735272 0.00872146
0.28 0.02 -0.00779531 0.000414563 0.00780632 0.00877781
0.29 0.02 -0.0082454 0.000411638 0.00825567 0.00884873
0.3 0.02 -0.0086898 0.000407237 0.00869934 0.00893414
0.31 0.02 -0.0091271 0.000401327 0.00913592 0.00903407
0.32 0.02 -0.00955584 0.0003939 0.00956396 0.00914851
0.33 0.02 -0.00997458 0.000384952 0.009982 0.00927743
0.34 0.02 -0.0103818 0.000374477 0.0103886 0.00942073
0.35 0.02 -0.0107762 0.000362466 0.0107823 0.00957828
0.36 0.02 -0.0111562 0.000348909 0.0111616 0.00974995
0.37 0.02 -0.0115203 0.000333798 0.0115251 0.00993551
0.38 0.02 -0.0118671 0.000317126 0.0118714 0.0101347
0.39 0.02 -0.0121952 0.000298894 0.0121989 0.0103473
0.4 0.02 -0.0125031 0.000279105 0.0125063 0.0105728
0.41 0.02 -0.0127894 0.000257774 0.012792 0.0108108
0.42 0.02 -0.0130527 0.00023492 0.0130548 0.0110608
0.43 0.02 -0.0132916 0.000210576 0.0132933 0.0113223
0.44 0.02 -0.0135048 0.000184785 0.0135061 0.0115945
0.45 0.02 -0.013691 0.000157604 0.0136919 0.0118767
0.46 0.02 -0.013849 0.000129102 0.0138496 0.0121681
0.47 0.02 -0.0139776 9.93658e-05 0.0139779 0.0124677
0.48 0.02 -0.0140758 6.85033e-05 0.0140759 0.0127745
0.49 0.02 -0.0141426 3.66422e-05 0.0141427 0.0130875
0.5 0.02 -0.0141773 3.90058e-06 0.0141773 0.0134051
0.51 0.02 -0.0141794 -2.95988e-05 0.0141794 0.0137265
0.52 0.02 -0.0141477 -6.36894e-05 0.0141479 0.014051
0.53 0.02 -0.0140817 -9.82043e-05 0.0140821 0.0143767
0.54 0.02 -0.0139811 -0.000132985 0.0139817 0.0147014
0.55 0.02 -0.013846 -0.000167856 0.0138471 0.0150238
0.56 0.02 -0.0136767 -0.000202612 0.0136782 0.0153424
0.57 0.02 -0.0134735 -0.00023703 0.0134755 0.0156557
0.58 0.02 -0.0132367 -0.000270876 0.0132395 0.0159621
0.59 0.02 -0.0129672 -0.00030391 0.0129708 0.0162598
0.6 0.02 -0.0126659 -0.000335888 0.0126703 0.0165474
0.61 0.02 -0.0123338 -0.000366566 0.0123393 0.0168231
0.62 0.02 -0.0119724 -0.000395701 0.0119789 0.0170854
0.63 0.02 -0.0115832 -0.00042305 0.0115909 0.0173328
0.64 0.02 -0.0111679 -0.00044838 0.0111769 0.0175639
0.65 0.02 -0.0107286 -0.000471464 0.010739 0.0177773
0.66 0.02 -0.0102675 -0.000492083 0.0102793 0.0179717
0.67 0.02 -0.00978685 -0.000510033 0.00980013 0.018146
0.68 0.02 -0.00928931 -0.00052513 0.00930414 0.0182993
0.69 0.02 -0.00877749 -0.000537234 0.00879391 0.0184307
0.7 0.02 -0.00825412 -0.00054628 0.00827218 0.0185396
0.71 0.02 -0.00772209 -0.000552261 0.00774181 0.0186253
0.72 0.02 -0.00718494 -0.000555097 0.00720635 0.0186865
0.73 0.02 -0.00664727 -0.000554426 0.00667035 0.0187222
0.74 0.02 -0.00611322 -0.000549596 0.00613787 0.0187353
0.75 0.02 -0.00558419 -0.00054034 0.00561027 0.0187299
0.76 0.02 -0.00506083 -0.000527126 0.00508821 0.0187043
0.77 0.02 -0.00454626 -0.000510446 0.00457483 0.0186554
0.78 0.02 -0.00404507 -0.000490498 0.0040747 0.0185842
0.79 0.02 -0.00356123 -0.000467403 0.00359177 0.0184929
0.8 0.02 -0.00309784 -0.000441248 0.00312911 0.0183834
0.81 0.02 -0.00265762 -0.000412139 0.00268939 0.0182575
0.82 0.02 -0.00224314 -0.000380241 0.00227514 0.0181169
0.83 0.02 -0.00185683 -0.00034578 0.00188875 0.0179637
0.84 0.02 -0.0015009 -0.000309041 0.00153239 0.0177999
0.85 0.02 -0.0011773 -0.000270359 0.00120795 0.0176279
0.86 0.02 -0.000887772 -0.000230109 0.00091711 0.0174503
0.87 0.02 -0.000633888 -0.000188703 0.000661379 0.0172693
0.88 0.02 -0.000416816 -0.000146593 0.000441843 0.0170883
0.89 0.02 -0.000237012 -0.000104289 0.000258942 0.0169105
0.9 0.02 -9.43769e-05 -6.23304e-05 0.000113102 0.0167389
0.91 0.02 1.16568e-05 -2.1334e-05 2.4311e-05 0.016577
0.92 0.02 8.23261e-05 1.79563e-05 8.42616e-05 0.0164283
0.93 0.02 0.00011969 5.46986e-05 0.000131597 0.0162964
0.94 0.02 0.000126919 8.77788e-05 0.000154317 0.0161851
0.95 0.02 0.000109103 0.00011527 0.000158716 0.016099
0.96 0.02 7.43169e-05 0.000133732 0.000152995 0.0160424
0.97 0.02 3.30161e-05 0.000137833 0.000141732 0.0160156
0.98 0.02 -2.21505e-06 0.0001214 0.00012142 0.0160184
0.99 0.02 -1.46282e-05 7.75153e-05 7.88835e-05 0.0160506
1 0.02 0 0 0 0.0160736
0 0.03 0 0 0 0.0105351
0.01 0.03 -2.45234e-05 -0.000116796 0.000119343 0.0105389
0.02 0.03 -4.55984e-05 -0.000160851 0.000167189 0.0105378
0.03 0.03 -7.13369e-05 -0.000152286 0.000168167 0.0105154
0.04 0.03 -0.000116271 -0.00010945 0.000159682 0.0104684
0.05 0.03 -0.000193502 -4.64311e-05 0.000198995 0.0103986
0.06 0.03 -0.000311993 2.75601e-05 0.000313208 0.010311
0.07 0.03 -0.000476578 0.000106778 0.000488393 0.0102101
0.08 0.03 -0.000689283 0.000187547 0.000714343 0.0100996
0.09 0.03 -0.000950374 0.000267442 0.000987287 0.00998281
0.1 0.03 -0.00125898 0.000344789 0.00130534 0.00986254
0.11 0.03 -0.00161324 0.000418375 0.00166661 0.00974188
0.12 0.03 -0.00201034 0.000487376 0.00206857 0.00962362
0.13 0.03 -0.00244706 0.000551284 0.00250839 0.00950959
0.14 0.03 -0.00292018 0.000609821 0.00298318 0.00940134
0.15 0.03 -0.00342643 0.000662885 0.00348997 0.00930036
0.16 0.03 -0.00396249 0.000710504 0.00402568 0.00920789
0.17 0.03 -0.00452503 0.000752797 0.00458722 0.00912495
0.18 0.03 -0.00511082 0.000789953 0.00517151 0.00905238
0.19 0.03 -0.00571676 0.000822199 0.00577558 0.00899083
0.2 0.03 -0.00633981 0.000849767 0.0063965 0.00894099
0.21 0.03 -0.00697675 0.000872858 0.00703113 0.00890379
0.22 0.03 -0.00762394 0.000891639 0.0076759 0.00888025
0.23 0.03 -0.00827804 0.00090625 0.0083275 0.00886973
0.24 0.03 -0.00893732 0.000916675 0.0089842 0.00887034
0.25 0.03 -0.00960083 0.000922873 0.00964508 0.00888263
0.26 0.03 -0.0102665 0.000925147 0.0103081 0.00890877
0.27 0.03 -0.0109311 0.000923932 0.0109701 0.00894935
0.28 0.03 -0.0115918 0.000919444 0.0116282 0.00900386
0.29 0.03 -0.0122462 0.000911723 0.0122801 0.00907206
0.3 0.03 -0.0128922 0.00090076 0.0129236 0.00915397
0.31 0.03 -0.0135275 0.000886547 0.0135565 0.00924965
0.32 0.03 -0.0141501 0.000869083 0.0141768 0.00935909
0.33 0.03 -0.0147579 0.000848369 0.0147822 0.00948225
0.34 0.03 -0.0153486 0.000824396 0.0153707 0.00961904
0.35 0.03 -0.0159202 0.000797156 0.0159401 0.00976936
0.36 0.03 -0.0164705 0.000766637 0.0164884 0.00993306
0.37 0.03 -0.0169975 0.000732832 0.0170133 0.0101099
0.38 0.03 -0.017499 0.000695739 0.0175128 0.0102998
0.39 0.03 -0.0179729 0.000655366 0.0179848 0.0105022
0.4 0.03 -0.0184171 0.000611734 0.0184273 0.010717
0.41 0.03 -0.0188297 0.000564878 0.0188382 0.0109436
0.42 0.03 -0.0192086 0.000514854 0.0192155 0.0111816
0.43 0.03 -0.0195518 0.000461735 0.0195573 0.0114304
0.44 0.03 -0.0198576 0.000405621 0.0198617 0.0116893
0.45 0.03 -0.0201239 0.000346637 0.0201269 0.0119577
0.46 0.03 -0.0203493 0.000284938 0.0203513 0.0122348
0.47 0.03 -0.020532 0.000220713 0.0205332 0.0125197
0.48 0.03 -0.0206706 0.000154187 0.0206711 0.0128114
0.49 0.03 -0.0207637 8.56033e-05 0.0207639 0.0131088
0.5 0.03 -0.0208104 1.51292e-05 0.0208104 0.0134107
0.51 0.03 -0.0208097 -5.68759e-05 0.0208098 0.013716
0.52 0.03 -0.0207604 -0.000129965 0.0207609 0.0140241
0.53 0.03 -0.0206618 -0.000203887 0.0206628 0.0143333
0.54 0.03 -0.0205135 -0.000278331 0.0205154 0.0146418
0.55 0.03 -0.0203157 -0.000352872 0.0203187 0.0149479
0.56 0.03 -0.0200686 -0.000427059 0.0200731 0.0152504
0.57 0.03 -0.0197728 -0.000500437 0.0197791 0.0155478
0.58 0.03 -0.019429 -0.000572535 0.0194375 0.0158387
0.59 0.03 -0.0190383 -0.000642865 0.0190491 0.0161214
0.6 0.03 -0.018602 -0.000710929 0.0186156 0.0163944
0.61 0.03 -0.0181217 -0.000776226 0.0181383 0.0166562
0.62 0.03 -0.0175994 -0.000838256 0.0176194 0.0169054
0.63 0.03 -0.0170374 -0.000896524 0.017061 0.0171404
0.64 0.03 -0.0164382 -0.000950548 0.0164657 0.01736
0.65 0.03 -0.0158047 -0.000999861 0.0158363 0.0175628
0.66 0.03 -0.01514 -0.00104402 0.0151759 0.0177478
0.67 0.03 -0.0144474 -0.00108261 0.0144879 0.0179138
0.68 0.03 -0.0137306 -0.00111525 0.0137758 0.0180599
0.69 0.03 -0.0129934 -0.00114163 0.0130435 0.0181854
0.7 0.03 -0.0122398 -0.00116151 0.0122948 0.0182898
0.71 0.03 -0.0114739 -0.00117469 0.0115339 0.0183724
0.72 0.03 -0.0107005 -0.00118095 0.0107655 0.0184323
0.73 0.03 -0.00992543 -0.00117987 0.00999531 0.0184684
0.74 0.03 -0.00915412 -0.00117081 0.00922868 0.0184829
0.75 0.03 -0.00838955 -0.00115354 0.00846848 0.0184794
0.76 0.03 -0.0076337 -0.00112851 0.00771666 0.0184571
0.77 0.03 -0.00689073 -0.00109621 0.00697738 0.0184133
0.78 0.03 -0.00616645 -0.00105688 0.00625637 0.0183486
0.79 0.03 -0.00546618 -0.00101077 0.00555884 0.0182652
0.8 0.03 -0.00479428 -0.000958164 0.00488909 0.0181651
0.81 0.03 -0.00415465 -0.000899378 0.00425088 0.0180496
0.82 0.03 -0.00355094 -0.000834813 0.00364775 0.0179206
0.83 0.03 -0.00298658 -0.000764956 0.00308299 0.0177798
0.84 0.03 -0.00246467 -0.000690388 0.00255954 0.0176293
0.85 0.03 -0.00198794 -0.000611781 0.00207995 0.0174715
0.86 0.03 -0.00155876 -0.00052989 0.00164637 0.0173084
0.87 0.03 -0.00117924 -0.000445551 0.0012606 0.0171424
0.88 0.03 -0.000850891 -0.000359719 0.000923804 0.0169766
0.89 0.03 -0.000574253 -0.000273542 0.000636075 0.0168142
0.9 0.03 -0.000348975 -0.000188261 0.000396517 0.0166579
0.91 0.03 -0.000174063 -0.000105205 0.000203386 0.0165106
0.92 0.03 -4.76023e-05 -2.59767e-05 5.42289e-05 0.0163753
0.93 0.03 3.34825e-05 4.74285e-05 5.80564e-05 0.0162551
0.94 0.03 7.35969e-05 0.000112432 0.000134378 0.0161526
0.95 0.03 7.91001e-05 0.00016543 0.000183369 0.0160714
0.96 0.03 5.93318e-05 0.000201056 0.000209628 0.0160152
0.97 0.03 2.65987e-05 0.000211598 0.000213263 0.0159857
0.98 0.03 -4.28171e-06 0.000188085 0.000188134 0.0159834
0.99 0.03 -1.49825e-05 0.000120743 0.000121669 0.0160094
1 0.03 0 0 0 0.0160296
0 0.04 0 0 0 0.0106416
0.01 0.04 -3.74322e-05 -0.000138772 0.000143731 0.0106411
0.02 0.04 -7.93676e-05 -0.000180771 0.000197427 0.0106308
0.03 0.04 -0.000137803 -0.000152251 0.000205354 0.0106001
0.04 0.04 -0.0002277 -7.63757e-05 0.000240168 0.0105484
0.05 0.04 -0.000361151 2.915e-05 0.000362325 0.0104789
0.06 0.04 -0.000546242 0.000152016 0.000567001 0.0103954
0.07 0.04 -0.000787665 0.000283742 0.000837213 0.010301
0.08 0.04 -0.00108762 0.000418405 0.00116532 0.0101986
0.09 0.04 -0.00144657 0.000551848 0.00154825 0.0100906
0.1 0.04 -0.00186373 0.000681116 0.00198429 0.00997936
0.11 0.04 -0.00233704 0.000804184 0.00247153 0.00986801
0.12 0.04 -0.00286326 0.000919758 0.00300736 0.00975905
0.13 0.04 -0.00343869 0.00102698 0.00358877 0.00965401
0.14 0.04 -0.00405949 0.00112534 0.00421258 0.00955433
0.15 0.04 -0.00472171 0.00121459 0.00487543 0.00946136
0.16 0.04 -0.00542129 0.00129475 0.00557376 0.00937626
0.17 0.04 -0.00615415 0.00136593 0.00630392 0.00929999
0.18 0.04 -0.00691627 0.0014284 0.00706223 0.00923332
0.19 0.04 -0.00770375 0.00148244 0.00784508 0.00917688
0.2 0.04 -0.00851276 0.0015284 0.00864888 0.00913133
0.21 0.04 -0.0093393 0.00156658 0.00946978 0.00909763
0.22 0.04 -0.0101789 0.00159727 0.0103035 0.00907678
0.23 0.04 -0.0110276 0.00162076 0.0111461 0.00906801
0.24 0.04 -0.011883 0.00163718 0.0119953 0.00906955
0.25 0.04 -0.0127434 0.00164663 0.0128493 0.00908233
0.26 0.04 -0.0136058 0.00164944 0.0137054 0.00910838
0.27 0.04 -0.0144663 0.00164608 0.0145596 0.00914799
0.28 0.04 -0.0153214 0.00163679 0.0154086 0.00920068
0.29 0.04 -0.0161681 0.00162169 0.0162492 0.00926631
0.3 0.04 -0.0170036 0.00160084 0.0170788 0.00934493
0.31 0.04 -0.017825 0.00157426 0.0178944 0.00943663
0.32 0.04 -0.0186296 0.00154199 0.0186933 0.00954141
0.33 0.04 -0.0194146 0.00150402 0.0194727 0.00965923
0.34 0.04 -0.0201771 0.00146037 0.0202299 0.00979004
0.35 0.04 -0.0209145 0.00141103 0.020962 0.00993372
0.36 0.04 -0.0216239 0.00135599 0.0216664 0.0100902
0.37 0.04 -0.0223027 0.00129527 0.0223403 0.0102591
0.38 0.04 -0.0229482 0.00122887 0.022981 0.0104405
0.39 0.04 -0.0235576 0.00115681 0.0235859 0.0106339
0.4 0.04 -0.0241283 0.00107917 0.0241524 0.010839
0.41 0.04 -0.0246577 0.000995995 0.0246778 0.0110554
0.42 0.04 -0.0251433 0.000907411 0.0251597 0.0112827
0.43 0.04 -0.0255826 0.000813557 0.0255955 0.0115203
0.44 0.04 -0.0259732 0.000714617 0.025983 0.0117677
0.45 0.04 -0.0263129 0.000610822 0.0263199 0.012024
0.46 0.04 -0.0265994 0.000502451 0.0266041 0.0122887
0.47 0.04 -0.0268308 0.000389836 0.0268337 0.0125608
0.48 0.04 -0.0270053 0.000273352 0.0270067 0.0128395
0.49 0.04 -0.0271214 0.000153371 0.0271218 0.0131233
0.5 0.04 -0.0271776 3.0227e-05 0.0271776 0.0134116
0.51 0.04 -0.0271726 -9.54543e-05 0.0271728 0.0137036
0.52 0.04 -0.0271054 -0.000222922 0.0271063 0.0139977
0.53 0.04 -0.026975 -0.000351656 0.0269773 0.0142931
0.54 0.04 -0.026781 -0.000481128 0.0267853 0.0145879
0.55 0.04 -0.0265236 -0.000610651 0.0265306 0.0148804
0.56 0.04 -0.0262032 -0.000739448 0.0262136 0.0151696
0.57 0.04 -0.0258205 -0.000866736 0.0258351 0.0154539
0.58 0.04 -0.0253766 -0.000991715 0.0253959 0.0157319
0.59 0.04 -0.0248727 -0.00111356 0.0248976 0.0160022
0.6 0.04 -0.0243107 -0.00123145 0.0243418 0.0162633
0.61 0.04 -0.0236926 -0.00134452 0.0237307 0.0165137
0.62 0.04 -0.023021 -0.00145194 0.0230667 0.016752
0.63 0.04 -0.0222988 -0.00155287 0.0223528 0.016977
0.64 0.04 -0.0215291 -0.0016465 0.021592 0.0171872
0.65 0.04 -0.0207158 -0.00173206 0.020788 0.0173815
0.66 0.04 -0.0198626 -0.00180878 0.0199448 0.0175588
0.67 0.04 -0.0189739 -0.00187598 0.0190664 0.017718
0.68 0.04 -0.0180543 -0.00193301 0.0181575 0.0178583
0.69 0.04 -0.0171086 -0.00197931 0.0172227 0.017979
0.7 0.04 -0.016142 -0.00201441 0.0162672 0.0180797
0.71 0.04 -0.0151596 -0.00203789 0.0152959 0.0181598
0.72 0.04 -0.0141673 -0.00204936 0.0143147 0.0182184
0.73 0.04 -0.0131719 -0.00204834 0.0133302 0.0182545
0.74 0.04 -0.01218 -0.00203427 0.0123487 0.0182698
0.75 0.04 -0.0111961 -0.00200695 0.0113746 0.0182677
0.76 0.04 -0.0102235 -0.00196677 0.0104109 0.0182479
0.77 0.04 -0.00926715 -0.00191418 0.00946278 0.0182079
0.78 0.04 -0.00833401 -0.00184954 0.00853677 0.0181483
0.79 0.04 -0.0074305 -0.00177324 0.00763915 0.0180709
0.8 0.04 -0.00656208 -0.00168579 0.00677516 0.0179777
0.81 0.04 -0.00573366 -0.00158782 0.00594946 0.0178701
0.82 0.04 -0.00494986 -0.00148004 0.00516639 0.0177497
0.83 0.04 -0.00421495 -0.0013633 0.00442995 0.0176184
0.84 0.04 -0.00353283 -0.0012386 0.00374367 0.0174779
0.85 0.04 -0.0029069 -0.00110708 0.00311057 0.0173305
0.86 0.04 -0.00234005 -0.000970011 0.00253313 0.0171783
0.87 0.04 -0.0018348 -0.000828836 0.00201332 0.0170233
0.88 0.04 -0.00139297 -0.000685135 0.00155234 0.0168683
0.89 0.04 -0.00101519 -0.000540742 0.00115023 0.0167166
0.9 0.04 -0.000700927 -0.000397791 0.000805938 0.0165711
0.91 0.04 -0.000448765 -0.000258699 0.000517992 0.0164338
0.92 0.04 -0.000256287 -0.0001263 0.000285718 0.0163075
0.93 0.04 -0.000119736 -4.08055e-06 0.000119805 0.0161946
0.94 0.04 -3.38694e-05 0.000103629 0.000109023 0.0160976
0.95 0.04 8.40549e-06 0.000191316 0.0001915 0.016019
0.96 0.04 1.68076e-05 0.000251637 0.000252198 0.0159619
0.97 0.04 4.26717e-06 0.000274788 0.000274821 0.0159292
0.98 0.04 -1.33629e-05 0.000249244 0.000249602 0.0159221
0.99 0.04 -1.71853e-05 0.000162255 0.000163163 0.0159419
1 0.04 0 0 0 0.0159589
0 0.05 0 0 0 0.0107763
0.01 0.05 -5.20208e-05 -0.00014338 0.000152525 0.0107699
0.02 0.05 -0.000118624 -0.000168939 0.000206427 0.0107471
0.03 0.05 -0.000215972 -0.000107985 0.000241464 0.0107049
0.04 0.05 -0.000358327 1.22021e-05 0.000358535 0.010646
0.05 0.05 -0.000555781 0.000170885 0.000581459 0.0105737
0.06 0.05 -0.000815025 0.000353009 0.00088819 0.0104905
0.07 0.05 -0.0011402 0.000547532 0.00126485 0.0103987
0.08 0.05 -0.00153332 0.000746288 0.00170529 0.0103005
0.09 0.05 -0.00199476 0.000943287 0.00220654 0.0101979
0.1 0.05 -0.00252352 0.00113427 0.00276672 0.0100932
0.11 0.05 -0.00311721 0.00131639 0.00338377 0.00998907
0.12 0.05 -0.00377232 0.00148771 0.00405508 0.00988734
0.13 0.05 -0.00448478 0.00164691 0.00477761 0.00978941
0.14 0.05 -0.0052503 0.00179315 0.00554807 0.00969663
0.15 0.05 -0.00606435 0.00192602 0.00636285 0.00961022
0.16 0.05 -0.00692224 0.00204544 0.00721812 0.00953122
0.17 0.05 -0.00781925 0.00215154 0.00810986 0.00946052
0.18 0.05 -0.0087507 0.00224459 0.00903399 0.00939882
0.19 0.05 -0.00971202 0.00232498 0.00998643 0.00934669
0.2 0.05 -0.0106987 0.00239312 0.0109631 0.00930477
0.21 0.05 -0.011706 0.00244946 0.0119595 0.00927402
0.22 0.05 -0.0127288 0.00249442 0.0129709 0.00925544
0.23 0.05 -0.0137625 0.00252841 0.0139928 0.00924808
0.24 0.05 -0.0148041 0.00255172 0.0150224 0.00925033
0.25 0.05 -0.0158512 0.00256458 0.0160573 0.00926335
0.26 0.05 -0.0168999 0.00256743 0.0170938 0.00928907
0.27 0.05 -0.0179457 0.00256074 0.0181274 0.00932756
0.28 0.05 -0.0189845 0.00254482 0.0191543 0.00937838
0.29 0.05 -0.0200128 0.00251983 0.0201708 0.00944144
0.3 0.05 -0.0210271 0.00248592 0.0211735 0.00951684
0.31 0.05 -0.0220239 0.00244315 0.022159 0.00960468
0.32 0.05 -0.0229998 0.00239158 0.0231238 0.00970497
0.33 0.05 -0.0239514 0.00233126 0.0240646 0.00981769
0.34 0.05 -0.0248753 0.00226219 0.024978 0.00994278
0.35 0.05 -0.0257682 0.0021844 0.0258606 0.0100802
0.36 0.05 -0.0266268 0.0020979 0.0267093 0.0102297
0.37 0.05 -0.0274477 0.0020027 0.0275206 0.0103913
0.38 0.05 -0.0282276 0.00189886 0.0282914 0.0105647
0.39 0.05 -0.0289635 0.00178643 0.0290185 0.0107496
0.4 0.05 -0.029652 0.00166551 0.0296987 0.0109458
0.41 0.05 -0.0302901 0.00153625 0.030329 0.0111528
0.42 0.05 -0.0308747 0.00139882 0.0309064 0.0113703
0.43 0.05 -0.0314029 0.00125346 0.031428 0.0115977
0.44 0.05 -0.0318719 0.00110047 0.0318909 0.0118344
0.45 0.05 -0.032279 0.000940224 0.0322927 0.0120798
0.46 0.05 -0.0326216 0.000773156 0.0326307 0.0123333
0.47 0.05 -0.0328974 0.000599755 0.0329029 0.0125939
0.48 0.05 -0.0331043 0.000420539 0.033107 0.0128606
0.49 0.05 -0.0332406 0.000236017 0.0332415 0.0131322
0.5 0.05 -0.0333046 4.69287e-05 0.0333047 0.0134085
0.51 0.05 -0.0332946 -0.000145737 0.0332949 0.0136886
0.52 0.05 -0.0332095 -0.000341023 0.0332112 0.0139707
0.53 0.05 -0.0330484 -0.000538065 0.0330528 0.0142538
0.54 0.05 -0.0328111 -0.000736015 0.0328193 0.0145366
0.55 0.05 -0.0324975 -0.000933883 0.0325109 0.0148174
0.56 0.05 -0.0321081 -0.00113053 0.032128 0.0150949
0.57 0.05 -0.031644 -0.00132477 0.0316717 0.0153678
0.58 0.05 -0.0311064 -0.00151538 0.0311433 0.0156348
0.59 0.05 -0.0304969 -0.00170114 0.0305443 0.0158943
0.6 0.05 -0.0298176 -0.0018808 0.0298769 0.0161452
0.61 0.05 -0.0290712 -0.00205309 0.0291436 0.0163858
0.62 0.05 -0.0282607 -0.00221677 0.0283475 0.016615
0.63 0.05 -0.0273895 -0.00237059 0.0274919 0.0168313
0.64 0.05 -0.0264614 -0.00251335 0.0265805 0.0170335
0.65 0.05 -0.025481 -0.00264388 0.0256178 0.0172206
0.66 0.05 -0.0244528 -0.00276107 0.0246081 0.0173913
0.67 0.05 -0.0233819 -0.00286387 0.0235566 0.0175448
0.68 0.05 -0.0222738 -0.00295134 0.0224685 0.0176802
0.69 0.05 -0.0211344 -0.0030226 0.0213494 0.0177969
0.7 0.05 -0.0199695 -0.00307692 0.0202052 0.0178944
0.71 0.05 -0.0187855 -0.00311364 0.0190418 0.0179722
0.72 0.05 -0.0175891 -0.00313221 0.0178659 0.0180296
0.73 0.05 -0.016388 -0.00313207 0.0166847 0.0180655
0.74 0.05 -0.01519 -0.00311268 0.0155056 0.0180813
0.75 0.05 -0.0140007 -0.00307386 0.0143341 0.0180803