Variables = x, y, u, v, umag, p
ZONE I= 101 J= 101 F=point
0 0 -8.12923e-07 1.40294e-06 1.62144e-06 0.0185504
0.01 0 0 0 0 0.0247385
0.02 0 0 8.47033e-22 8.47033e-22 0.024741
0.03 0 0 8.47033e-22 8.47033e-22 0.0247289
0.04 0 0 0 0 0.0247005
0.05 0 -6.77626e-21 -4.23516e-22 6.78949e-21 0.0246565
0.06 0 0 4.23516e-22 4.23516e-22 0.0245993
0.07 0 -6.77626e-21 -1.05879e-22 6.77709e-21 0.0245311
0.08 0 6.77626e-21 0 6.77626e-21 0.0244543
0.09 0 0 2.11758e-22 2.11758e-22 0.0243705
0.1 0 0 0 0 0.0242812
0.11 0 -8.47033e-22 0 8.47033e-22 0.0241875
0.12 0 0 0 0 0.0240903
0.13 0 0 0 0 0.0239903
0.14 0 -6.77626e-21 0 6.77626e-21 0.0238878
0.15 0 0 0 0 0.0237833
0.16 0 0 -1.69407e-21 1.69407e-21 0.023677
0.17 0 0 1.69407e-21 1.69407e-21 0.0235691
0.18 0 0 1.69407e-21 1.69407e-21 0.0234599
0.19 0 2.71051e-20 0 2.71051e-20 0.0233497
0.2 0 0 0 0 0.0232387
0.21 0 0 -1.69407e-21 1.69407e-21 0.0231273
0.22 0 0 0 0 0.0230159
0.23 0 0 -1.69407e-21 1.69407e-21 0.022905
0.24 0 5.42101e-20 0 5.42101e-20 0.0227953
0.25 0 0 -3.38813e-21 3.38813e-21 0.0226873
0.26 0 -1.0842e-19 3.38813e-21 1.08473e-19 0.0225817
0.27 0 -1.0842e-19 3.38813e-21 1.08473e-19 0.0224795
0.28 0 0 -3.38813e-21 3.38813e-21 0.0223814
0.29 0 1.0842e-19 0 1.0842e-19 0.0222884
0.3 0 0 -3.38813e-21 3.38813e-21 0.0222015
0.31 0 1.0842e-19 3.38813e-21 1.08473e-19 0.0221217
0.32 0 1.0842e-19 0 1.0842e-19 0.0220502
0.33 0 2.1684e-19 0 2.1684e-19 0.021988
0.34 0 -2.1684e-19 0 2.1684e-19 0.0219363
0.35 0 -2.1684e-19 -3.38813e-21 2.16867e-19 0.0218962
0.36 0 0 3.38813e-21 3.38813e-21 0.0218694
0.37 0 2.1684e-19 0 2.1684e-19 0.0218569
0.38 0 -2.1684e-19 -3.38813e-21 2.16867e-19 0.0218581
0.39 0 0 -3.38813e-21 3.38813e-21 0.0218738
0.4 0 0 0 0 0.021906
0.41 0 0 -3.38813e-21 3.38813e-21 0.0219556
0.42 0 0 0 0 0.0220227
0.43 0 -2.1684e-19 -3.38813e-21 2.16867e-19 0.0221073
0.44 0 2.1684e-19 0 2.1684e-19 0.0222097
0.45 0 0 -3.38813e-21 3.38813e-21 0.0223297
0.46 0 -2.1684e-19 -1.69407e-21 2.16847e-19 0.022467
0.47 0 2.1684e-19 0 2.1684e-19 0.0226208
0.48 0 2.1684e-19 0 2.1684e-19 0.0227903
0.49 0 0 8.47033e-22 8.47033e-22 0.0229741
0.5 0 2.1684e-19 0 2.1684e-19 0.0231707
0.51 0 0 4.23516e-22 4.23516e-22 0.0233782
0.52 0 0 0 0 0.0235956
0.53 0 0 0 0 0.0238204
0.54 0 0 0 0 0.0240498
0.55 0 2.1684e-19 -1.69407e-21 2.16847e-19 0.024281
0.56 0 2.1684e-19 1.69407e-21 2.16847e-19 0.0245108
0.57 0 0 0 0 0.0247364
0.58 0 -2.1684e-19 0 2.1684e-19 0.0249548
0.59 0 0 0 0 0.0251631
0.6 0 0 0 0 0.0253581
0.61 0 2.1684e-19 0 2.1684e-19 0.0255369
0.62 0 -2.1684e-19 -3.38813e-21 2.16867e-19 0.0256968
0.63 0 0 -3.38813e-21 3.38813e-21 0.0258353
0.64 0 0 0 0 0.02595
0.65 0 2.1684e-19 6.77626e-21 2.16946e-19 0.026039
0.66 0 2.1684e-19 0 2.1684e-19 0.0260998
0.67 0 0 0 0 0.0261312
0.68 0 0 0 0 0.0261352
0.69 0 0 6.77626e-21 6.77626e-21 0.0261125
0.7 0 0 0 0 0.0260605
0.71 0 0 0 0 0.0259791
0.72 0 -5.42101e-20 3.38813e-21 5.43159e-20 0.0258706
0.73 0 -5.42101e-20 0 5.42101e-20 0.0257367
0.74 0 0 0 0 0.0255795
0.75 0 0 0 0 0.0254013
0.76 0 -2.5411e-21 0 2.5411e-21 0.0252048
0.77 0 0 -3.38813e-21 3.38813e-21 0.0249928
0.78 0 0 -3.38813e-21 3.38813e-21 0.0247684
0.79 0 -2.71051e-20 0 2.71051e-20 0.0245349
0.8 0 2.71051e-20 1.69407e-21 2.71579e-20 0.0242953
0.81 0 -5.42101e-20 1.69407e-21 5.42366e-20 0.0240527
0.82 0 0 0 0 0.0238106
0.83 0 0 4.23516e-22 4.23516e-22 0.0235719
0.84 0 5.42101e-20 -5.29396e-23 5.42101e-20 0.0233396
0.85 0 5.42101e-20 0 5.42101e-20 0.0231165
0.86 0 -5.42101e-20 0 5.42101e-20 0.0229054
0.87 0 -5.42101e-20 0 5.42101e-20 0.022709
0.88 0 -5.42101e-20 1.69407e-21 5.42366e-20 0.022529
0.89 0 0 1.69407e-21 1.69407e-21 0.0223666
0.9 0 -5.42101e-20 0 5.42101e-20 0.022224
0.91 0 -2.71051e-20 0 2.71051e-20 0.0221028
0.92 0 -2.71051e-20 0 2.71051e-20 0.0220042
0.93 0 0 0 0 0.0219295
0.94 0 0 0 0 0.0218797
0.95 0 1.35525e-20 1.69407e-21 1.3658e-20 0.0218548
0.96 0 6.77626e-21 -1.69407e-21 6.98481e-21 0.0218516
0.97 0 -1.69407e-21 -8.47033e-22 1.89402e-21 0.0218665
0.98 0 4.23516e-22 -4.23516e-22 5.98943e-22 0.0218956
0.99 0 0 0 0 0.0219263
1 0 3.60594e-06 3.06861e-06 4.73489e-06 0.0164546
0 0.01 0 0 0 0.0247304
0.01 0.01 2.60317e-05 -3.18023e-05 4.10978e-05 0.024735
0.02 0.01 7.3736e-05 -5.07306e-05 8.95019e-05 0.0247369
0.03 0.01 0.00013521 -5.43285e-05 0.000145716 0.0247244
0.04 0.01 0.00019279 -4.72284e-05 0.00019849 0.0246969
0.05 0.01 0.000234532 -3.38697e-05 0.000236965 0.0246549
0.06 0.01 0.000253114 -1.74253e-05 0.000253713 0.0246007
0.07 0.01 0.000244833 1.47423e-07 0.000244834 0.024536
0.08 0.01 0.000208096 1.79028e-05 0.000208865 0.0244629
0.09 0.01 0.000142725 3.52964e-05 0.000147025 0.0243829
0.1 0.01 4.93545e-05 5.20092e-05 7.16996e-05 0.0242974
0.11 0.01 -7.0974e-05 6.79036e-05 9.82253e-05 0.0242074
0.12 0.01 -0.000217036 8.29712e-05 0.000232355 0.0241138
0.13 0.01 -0.000387545 9.73234e-05 0.000399578 0.0240172
0.14 0.01 -0.00058131 0.000111069 0.000591826 0.023918
0.15 0.01 -0.000797349 0.000124271 0.000806975 0.0238166
0.16 0.01 -0.00103487 0.000137032 0.0010439 0.0237134
0.17 0.01 -0.00129323 0.000149472 0.00130184 0.0236084
0.18 0.01 -0.00157196 0.000161697 0.00158026 0.0235022
0.19 0.01 -0.00187071 0.00017379 0.00187877 0.0233948
0.2 0.01 -0.00218922 0.0001858 0.00219709 0.0232866
0.21 0.01 -0.00252732 0.00019776 0.00253505 0.0231779
0.22 0.01 -0.00288488 0.000209685 0.00289249 0.0230693
0.23 0.01 -0.00326165 0.000221554 0.00326917 0.0229611
0.24 0.01 -0.00365729 0.000233314 0.00366473 0.0228539
0.25 0.01 -0.00407138 0.000244891 0.00407874 0.0227484
0.26 0.01 -0.00450336 0.000256187 0.00451064 0.0226453
0.27 0.01 -0.0049525 0.000267085 0.00495969 0.0225453
0.28 0.01 -0.00541784 0.000277455 0.00542494 0.0224493
0.29 0.01 -0.00589823 0.000287149 0.00590521 0.0223582
0.3 0.01 -0.00639223 0.000296013 0.00639908 0.0222729
0.31 0.01 -0.00689818 0.000303882 0.00690487 0.0221946
0.32 0.01 -0.00741412 0.000310589 0.00742062 0.0221241
0.33 0.01 -0.00793784 0.00031597 0.00794412 0.0220627
0.34 0.01 -0.00846689 0.000319885 0.00847293 0.0220113
0.35 0.01 -0.00899868 0.000322277 0.00900445 0.0219711
0.36 0.01 -0.00952976 0.000323052 0.00953524 0.0219436
0.37 0.01 -0.0100554 0.000321469 0.0100606 0.0219299
0.38 0.01 -0.010572 0.000316862 0.0105768 0.0219297
0.39 0.01 -0.0110776 0.000309635 0.0110819 0.0219433
0.4 0.01 -0.011569 0.000300094 0.0115729 0.0219729
0.41 0.01 -0.012041 0.000288043 0.0120444 0.0220193
0.42 0.01 -0.0124887 0.000273347 0.0124917 0.0220824
0.43 0.01 -0.0129079 0.000255909 0.0129105 0.0221626
0.44 0.01 -0.0132943 0.000235704 0.0132964 0.0222599
0.45 0.01 -0.0136436 0.000212742 0.0136452 0.0223743
0.46 0.01 -0.0139513 0.000187048 0.0139526 0.0225054
0.47 0.01 -0.0142134 0.000158742 0.0142143 0.0226524
0.48 0.01 -0.0144259 0.000127902 0.0144265 0.0228146
0.49 0.01 -0.0145852 9.44559e-05 0.0145855 0.0229906
0.5 0.01 -0.0146883 5.84107e-05 0.0146884 0.0231789
0.51 0.01 -0.0147324 2.03932e-05 0.0147324 0.0233782
0.52 0.01 -0.0147145 -1.84994e-05 0.0147145 0.0235869
0.53 0.01 -0.0146326 -5.78252e-05 0.0146327 0.0238027
0.54 0.01 -0.0144851 -9.77294e-05 0.0144855 0.0240231
0.55 0.01 -0.0142713 -0.000138203 0.014272 0.0242452
0.56 0.01 -0.0139913 -0.000178915 0.0139924 0.0244661
0.57 0.01 -0.0136462 -0.000219262 0.0136479 0.0246829
0.58 0.01 -0.0132376 -0.000258631 0.0132402 0.0248929
0.59 0.01 -0.0127679 -0.000296467 0.0127713 0.025093
0.6 0.01 -0.0122399 -0.000332224 0.0122444 0.0252804
0.61 0.01 -0.0116576 -0.000365374 0.0116633 0.0254522
0.62 0.01 -0.0110254 -0.000395426 0.0110325 0.0256057
0.63 0.01 -0.0103488 -0.000421951 0.0103574 0.0257386
0.64 0.01 -0.00963354 -0.000444607 0.00964379 0.0258485
0.65 0.01 -0.00888572 -0.000463154 0.00889778 0.0259337
0.66 0.01 -0.00811306 -0.000477331 0.00812709 0.0259918
0.67 0.01 -0.00732536 -0.000486675 0.00734151 0.0260216
0.68 0.01 -0.00653032 -0.000490409 0.00654871 0.0260248
0.69 0.01 -0.00573161 -0.000488173 0.00575236 0.0260021
0.7 0.01 -0.00493541 -0.000480654 0.00495876 0.0259512
0.71 0.01 -0.00415187 -0.000468568 0.00417823 0.025872
0.72 0.01 -0.00338978 -0.00045205 0.00341979 0.0257667
0.73 0.01 -0.00265599 -0.000431192 0.00269076 0.025637
0.74 0.01 -0.00195705 -0.00040626 0.00199877 0.0254849
0.75 0.01 -0.00129913 -0.000377641 0.00135291 0.0253126
0.76 0.01 -0.000687764 -0.000345793 0.0007698 0.0251226
0.77 0.01 -0.000127736 -0.000311222 0.000336415 0.0249178
0.78 0.01 0.000376942 -0.000274474 0.000466284 0.0247011
0.79 0.01 0.000823125 -0.000236119 0.000856322 0.0244756
0.8 0.01 0.00120841 -0.000196753 0.00122433 0.0242443
0.81 0.01 0.00153105 -0.000157011 0.00153908 0.0240103
0.82 0.01 0.00179038 -0.000117534 0.00179423 0.0237768
0.83 0.01 0.00198686 -7.88722e-05 0.00198842 0.0235467
0.84 0.01 0.00212155 -4.1353e-05 0.00212195 0.0233227
0.85 0.01 0.00219619 -5.14267e-06 0.0021962 0.0231077
0.86 0.01 0.00221338 2.97554e-05 0.00221358 0.0229041
0.87 0.01 0.00217666 6.3158e-05 0.00217758 0.0227146
0.88 0.01 0.00209035 9.39993e-05 0.00209246 0.0225408
0.89 0.01 0.0019592 0.000121217 0.00196295 0.0223844
0.9 0.01 0.00178873 0.000144382 0.00179455 0.0222469
0.91 0.01 0.00158529 0.000162982 0.00159365 0.0221298
0.92 0.01 0.0013562 0.000176363 0.00136762 0.0220341
0.93 0.01 0.00111001 0.000183754 0.00112512 0.0219608
0.94 0.01 0.00085716 0.000184035 0.000876694 0.0219107
0.95 0.01 0.000611171 0.00017508 0.000635754 0.0218838
0.96 0.01 0.000386685 0.000154186 0.000416292 0.0218773
0.97 0.01 0.0001972 0.000119869 0.000230774 0.0218875
0.98 0.01 5.84179e-05 7.305e-05 9.35358e-05 0.0219108
0.99 0.01 -6.2382e-06 1.75674e-05 1.86421e-05 0.0219415
1 0.01 0 0 0 0.0219577
0 0.02 0 0 0 0.0247303
0.01 0.02 4.28833e-05 -8.39294e-05 9.42503e-05 0.0247351
0.02 0.02 0.000111918 -0.000126249 0.000168714 0.0247367
0.03 0.02 0.000193507 -0.000130589 0.000233449 0.0247238
0.04 0.02 0.000261901 -0.00010769 0.000283177 0.0246976
0.05 0.02 0.000299632 -6.74598e-05 0.000307132 0.0246588
0.06 0.02 0.000295359 -1.73418e-05 0.000295868 0.0246092
0.07 0.02 0.000242914 3.75505e-05 0.0002458 0.0245504
0.08 0.02 0.00013923 9.4047e-05 0.000168018 0.0244838
0.09 0.02 -1.66646e-05 0.00015016 0.000151082 0.0244105
0.1 0.02 -0.000224266 0.000204708 0.000303645 0.0243317
0.11 0.02 -0.000482207 0.000257104 0.000546466 0.0242483
0.12 0.02 -0.000788669 0.0003072 0.000846386 0.0241611
0.13 0.02 -0.00114169 0.000355113 0.00119564 0.0240707
0.14 0.02 -0.00153943 0.000401041 0.00159081 0.0239775
0.15 0.02 -0.00198024 0.000445236 0.00202967 0.0238819
0.16 0.02 -0.00246268 0.000488017 0.00251057 0.0237842
0.17 0.02 -0.00298558 0.000529706 0.00303221 0.0236848
0.18 0.02 -0.00354801 0.000570585 0.00359359 0.0235838
0.19 0.02 -0.00414919 0.000610875 0.00419392 0.0234816
0.2 0.02 -0.00478851 0.000650717 0.00483252 0.0233786
0.21 0.02 -0.00546542 0.000690174 0.00550882 0.0232749
0.22 0.02 -0.00617939 0.00072925 0.00622227 0.0231711
0.23 0.02 -0.00692973 0.000767855 0.00697215 0.0230676
0.24 0.02 -0.00771552 0.00080579 0.00775749 0.022965
0.25 0.02 -0.00853566 0.000842785 0.00857716 0.0228638
0.26 0.02 -0.00938876 0.000878512 0.00942977 0.0227647
0.27 0.02 -0.0102731 0.000912583 0.0103135 0.0226685
0.28 0.02 -0.0111865 0.000944563 0.0112264 0.0225759
0.29 0.02 -0.0121265 0.000973975 0.0121656 0.0224878
0.3 0.02 -0.0130901 0.00100031 0.0131283 0.0224051
0.31 0.02 -0.0140737 0.00102304 0.0141108 0.0223287
0.32 0.02 -0.0150733 0.00104162 0.0151092 0.0222597
0.33 0.02 -0.0160843 0.00105551 0.0161189 0.0221989
0.34 0.02 -0.0171019 0.00106419 0.017135 0.0221475
0.35 0.02 -0.0181206 0.00106721 0.018152 0.0221065
0.36 0.02 -0.0191342 0.00106412 0.0191637 0.022077
0.37 0.02 -0.0201347 0.00105371 0.0201622 0.0220604
0.38 0.02 -0.0211146 0.00103472 0.02114 0.0220568
0.39 0.02 -0.0220689 0.00100735 0.0220919 0.0220662
0.4 0.02 -0.0229914 0.000972108 0.0230119 0.0220902
0.41 0.02 -0.0238732 0.000928648 0.0238912 0.02213
0.42 0.02 -0.0247055 0.000876565 0.024721 0.0221856
0.43 0.02 -0.0254804 0.0008157 0.0254934 0.0222572
0.44 0.02 -0.0261899 0.000746086 0.0262005 0.0223449
0.45 0.02 -0.0268262 0.0006678 0.0268345 0.0224487
0.46 0.02 -0.0273815 0.000580932 0.0273877 0.0225682
0.47 0.02 -0.0278486 0.000485674 0.0278528 0.0227026
0.48 0.02 -0.0282207 0.000382416 0.0282233 0.0228512
0.49 0.02 -0.0284917 0.000271568 0.028493 0.0230131
0.5 0.02 -0.0286557 0.000154009 0.0286561 0.0231871
0.51 0.02 -0.0287075 3.14656e-05 0.0287075 0.0233719
0.52 0.02 -0.0286429 -9.43911e-05 0.028643 0.0235654
0.53 0.02 -0.0284592 -0.000222589 0.02846 0.0237653
0.54 0.02 -0.0281545 -0.000352483 0.0281567 0.0239696
0.55 0.02 -0.0277276 -0.000483287 0.0277318 0.024176
0.56 0.02 -0.0271788 -0.000613842 0.0271857 0.0243815
0.57 0.02 -0.0265105 -0.000742476 0.0265209 0.0245834
0.58 0.02 -0.0257259 -0.00086747 0.0257405 0.0247789
0.59 0.02 -0.0248295 -0.000987202 0.0248491 0.0249654
0.6 0.02 -0.0238272 -0.00110008 0.0238526 0.0251399
0.61 0.02 -0.0227261 -0.00120457 0.022758 0.0252999
0.62 0.02 -0.0215347 -0.0012992 0.0215739 0.0254428
0.63 0.02 -0.0202628 -0.00138264 0.0203099 0.0255662
0.64 0.02 -0.0189209 -0.00145374 0.0189767 0.0256682
0.65 0.02 -0.0175206 -0.00151153 0.0175856 0.025747
0.66 0.02 -0.0160752 -0.00155509 0.0161502 0.0258005
0.67 0.02 -0.0146008 -0.00158344 0.0146864 0.0258275
0.68 0.02 -0.0131108 -0.00159543 0.0132075 0.0258294
0.69 0.02 -0.0116143 -0.0015906 0.0117227 0.0258067
0.7 0.02 -0.0101235 -0.00156977 0.0102444 0.0257574
0.71 0.02 -0.0086549 -0.00153396 0.00878978 0.0256818
0.72 0.02 -0.00722349 -0.00148371 0.00737429 0.0255819
0.73 0.02 -0.00584189 -0.00141963 0.00601191 0.0254592
0.74 0.02 -0.00452218 -0.00134265 0.00471729 0.0253154
0.75 0.02 -0.00327559 -0.00125396 0.00350741 0.0251528
0.76 0.02 -0.00211228 -0.00115493 0.0024074 0.0249738
0.77 0.02 -0.00104113 -0.00104708 0.00147659 0.024781
0.78 0.02 -6.96575e-05 -0.000932065 0.000934664 0.0245772
0.79 0.02 0.000796077 -0.000811608 0.00113686 0.0243653
0.8 0.02 0.00155133 -0.000687476 0.00169683 0.0241481
0.81 0.02 0.00219259 -0.000561489 0.00226334 0.0239285
0.82 0.02 0.00271829 -0.000435497 0.00275296 0.0237097
0.83 0.02 0.00312893 -0.000311243 0.00314438 0.0234944
0.84 0.02 0.00342631 -0.000190119 0.00343158 0.0232851
0.85 0.02 0.00361349 -7.32654e-05 0.00361423 0.0230842
0.86 0.02 0.00369497 3.82906e-05 0.00369517 0.0228939
0.87 0.02 0.00367642 0.000143392 0.00367922 0.0227161
0.88 0.02 0.00356496 0.000240203 0.00357304 0.0225531
0.89 0.02 0.0033696 0.000326681 0.0033854 0.0224066
0.9 0.02 0.00310073 0.000400934 0.00312654 0.0222777
0.91 0.02 0.00277007 0.000460861 0.00280814 0.0221675
0.92 0.02 0.00239119 0.000504254 0.00244378 0.0220769
0.93 0.02 0.00197961 0.000528627 0.00204897 0.0220064
0.94 0.02 0.00155328 0.000530775 0.00164147 0.0219563
0.95 0.02 0.00113407 0.000506347 0.00124197 0.0219268
0.96 0.02 0.000745748 0.000450461 0.000871238 0.0219159
0.97 0.02 0.000410791 0.000360182 0.000546333 0.0219204
0.98 0.02 0.000150758 0.000238097 0.000281812 0.0219372
0.99 0.02 1.04069e-05 9.39275e-05 9.45023e-05 0.0219746
1 0.02 0 0 0 0.022001
0 0.03 0 0 0 0.0247452
0.01 0.03 4.57773e-05 -0.000148706 0.000155593 0.02475
0.02 0.03 0.000114016 -0.000212788 0.000241409 0.0247513
0.03 0.03 0.000185674 -0.000209321 0.000279804 0.0247379
0.04 0.03 0.000230762 -0.000157246 0.000279244 0.0247121
0.05 0.03 0.000229539 -7.29693e-05 0.000240859 0.0246751
0.06 0.03 0.000168949 3.10503e-05 0.000171779 0.0246284
0.07 0.03 4.14721e-05 0.000145702 0.000151489 0.0245734
0.08 0.03 -0.000156907 0.000264616 0.000307639 0.0245111
0.09 0.03 -0.000427742 0.000383606 0.000574558 0.0244426
0.1 0.03 -0.000770757 0.000500112 0.000918792 0.0243688
0.11 0.03 -0.00118452 0.000612759 0.00133362 0.0242905
0.12 0.03 -0.00166697 0.000721028 0.00181622 0.0242085
0.13 0.03 -0.00221587 0.000824921 0.00236444 0.0241231
0.14 0.03 -0.00282898 0.000924749 0.00297629 0.0240348
0.15 0.03 -0.00350421 0.00102104 0.00364993 0.0239441
0.16 0.03 -0.00423966 0.00111438 0.00438367 0.0238511
0.17 0.03 -0.00503373 0.00120536 0.00517604 0.0237563
0.18 0.03 -0.00588506 0.00129449 0.00602574 0.0236599
0.19 0.03 -0.00679244 0.00138214 0.00693163 0.023562
0.2 0.03 -0.00775481 0.00146855 0.00789263 0.0234632
0.21 0.03 -0.00877112 0.00155375 0.00890768 0.0233635
0.22 0.03 -0.00984029 0.00163769 0.00997564 0.0232636
0.23 0.03 -0.010961 0.00172013 0.0110951 0.0231637
0.24 0.03 -0.0121316 0.0018006 0.0122645 0.0230645
0.25 0.03 -0.0133501 0.00187848 0.0134816 0.0229665
0.26 0.03 -0.014614 0.00195303 0.014744 0.0228702
0.27 0.03 -0.0159206 0.00202343 0.0160486 0.0227764
0.28 0.03 -0.0172661 0.00208872 0.017392 0.0226859
0.29 0.03 -0.0186467 0.00214788 0.01877 0.0225994
0.3 0.03 -0.0200574 0.00219982 0.0201776 0.0225178
0.31 0.03 -0.0214928 0.00224342 0.0216096 0.022442
0.32 0.03 -0.0229468 0.00227753 0.0230596 0.0223729
0.33 0.03 -0.0244126 0.00230098 0.0245208 0.0223115
0.34 0.03 -0.0258826 0.00231264 0.0259857 0.0222588
0.35 0.03 -0.0273487 0.00231141 0.0274462 0.0222157
0.36 0.03 -0.028802 0.00229626 0.0288934 0.0221832
0.37 0.03 -0.030232 0.00226577 0.0303168 0.0221629
0.38 0.03 -0.031628 0.00221805 0.0317057 0.0221552
0.39 0.03 -0.032981 0.00215249 0.0330512 0.0221598
0.4 0.03 -0.0342822 0.00206973 0.0343446 0.022178
0.41 0.03 -0.0355201 0.0019695 0.0355746 0.0222112
0.42 0.03 -0.0366827 0.00185101 0.0367294 0.0222594
0.43 0.03 -0.0377588 0.00171399 0.0377977 0.0223229
0.44 0.03 -0.0387377 0.00155845 0.038769 0.0224017
0.45 0.03 -0.0396087 0.00138463 0.0396329 0.0224956
0.46 0.03 -0.0403617 0.00119312 0.0403793 0.0226046
0.47 0.03 -0.0409869 0.000984503 0.0409987 0.0227283
0.48 0.03 -0.0414754 0.000759947 0.0414823 0.0228659
0.49 0.03 -0.0418188 0.000521291 0.0418221 0.0230168
0.5 0.03 -0.0420095 0.00027067 0.0420104 0.0231798
0.51 0.03 -0.0420412 1.037e-05 0.0420412 0.0233531
0.52 0.03 -0.0419094 -0.000257525 0.0419102 0.0235345
0.53 0.03 -0.0416112 -0.000530888 0.0416146 0.0237223
0.54 0.03 -0.0411446 -0.000807291 0.0411525 0.0239146
0.55 0.03 -0.0405087 -0.00108427 0.0405232 0.0241092
0.56 0.03 -0.0397043 -0.00135918 0.0397276 0.0243036
0.57 0.03 -0.0387348 -0.00162892 0.0387691 0.0244947
0.58 0.03 -0.0376053 -0.00189023 0.0376528 0.0246801
0.59 0.03 -0.0363223 -0.00213995 0.0363853 0.024857
0.6 0.03 -0.0348942 -0.00237494 0.0349749 0.0250227
0.61 0.03 -0.033331 -0.0025922 0.0334317 0.0251747
0.62 0.03 -0.0316444 -0.00278888 0.0317671 0.0253104
0.63 0.03 -0.0298478 -0.00296226 0.0299944 0.0254275
0.64 0.03 -0.0279556 -0.00310992 0.028128 0.0255241
0.65 0.03 -0.0259835 -0.00322973 0.0261835 0.0255987
0.66 0.03 -0.0239495 -0.00331982 0.0241785 0.0256491
0.67 0.03 -0.0218739 -0.00337852 0.0221333 0.0256742
0.68 0.03 -0.0197747 -0.00340445 0.0200656 0.0256752
0.69 0.03 -0.0176658 -0.00339714 0.0179894 0.0256525
0.7 0.03 -0.0155645 -0.00335731 0.0159224 0.0256043
0.71 0.03 -0.013492 -0.00328605 0.0138864 0.0255311
0.72 0.03 -0.0114679 -0.00318447 0.0119018 0.0254348
0.73 0.03 -0.00950951 -0.00305403 0.00998789 0.0253167
0.74 0.03 -0.00763337 -0.00289667 0.0081645 0.0251785
0.75 0.03 -0.00585494 -0.00271477 0.00645371 0.0250224
0.76 0.03 -0.00418825 -0.00251106 0.00488332 0.0248508
0.77 0.03 -0.00264571 -0.0022886 0.00349821 0.0246662
0.78 0.03 -0.00123797 -0.0020507 0.0023954 0.0244712
0.79 0.03 2.62452e-05 -0.00180088 0.00180107 0.0242688
0.8 0.03 0.00113997 -0.00154272 0.00191821 0.0240614
0.81 0.03 0.00209795 -0.00127981 0.0024575 0.0238521
0.82 0.03 0.00289746 -0.00101571 0.00307033 0.0236436
0.83 0.03 0.00353858 -0.000753892 0.00361799 0.023439
0.84 0.03 0.00402335 -0.000497655 0.00405401 0.0232403
0.85 0.03 0.00435553 -0.000250138 0.00436271 0.0230498
0.86 0.03 0.00454086 -1.44453e-05 0.00454088 0.0228695
0.87 0.03 0.00458677 0.000206344 0.00459141 0.0227011
0.88 0.03 0.00450269 0.000409218 0.00452125 0.0225464
0.89 0.03 0.0043004 0.000590872 0.0043408 0.022407
0.9 0.03 0.00399377 0.000747471 0.00406312 0.0222841
0.91 0.03 0.00359889 0.000874873 0.0037037 0.0221789
0.92 0.03 0.00313429 0.000968522 0.00328052 0.0220922
0.93 0.03 0.00262075 0.00102324 0.00281343 0.022024
0.94 0.03 0.00208159 0.00103308 0.00232384 0.0219747
0.95 0.03 0.00154414 0.000991332 0.00183497 0.0219446
0.96 0.03 0.00103798 0.000891407 0.00136822 0.0219322
0.97 0.03 0.000591928 0.000729263 0.000939257 0.0219358
0.98 0.03 0.000231741 0.000508241 0.000558581 0.0219522
0.99 0.03 2.46183e-05 0.000241774 0.000243024 0.0220023
1 0.03 0 0 0 0.0220417
0 0.04 0 0 0 0.0247772
0.01 0.04 3.77472e-05 -0.000208323 0.000211715 0.0247807
0.02 0.04 8.73189e-05 -0.000283446 0.000296591 0.0247797
0.03 0.04 0.000124893 -0.000258285 0.000286896 0.0247646
0.04 0.04 0.000119279 -0.000161324 0.000200631 0.0247381
0.05 0.04 5.05227e-05 -1.60058e-05 5.29975e-05 0.0247017
0.06 0.04 -9.45827e-05 0.000159797 0.00018569 0.0246565
0.07 0.04 -0.000324048 0.000352682 0.000478949 0.0246038
0.08 0.04 -0.000642254 0.000552959 0.000847498 0.0245444
0.09 0.04 -0.00105091 0.000754063 0.00129345 0.0244794
0.1 0.04 -0.00154981 0.000951857 0.00181877 0.0244094
0.11 0.04 -0.00213748 0.001144 0.00242437 0.0243353
0.12 0.04 -0.00281179 0.00132945 0.00311024 0.0242574
0.13 0.04 -0.00357031 0.00150803 0.00387573 0.0241764
0.14 0.04 -0.00441056 0.00168018 0.00471975 0.0240925
0.15 0.04 -0.00533015 0.00184664 0.00564097 0.024006
0.16 0.04 -0.0063269 0.00200827 0.00663798 0.0239173
0.17 0.04 -0.00739885 0.0021659 0.00770935 0.0238266
0.18 0.04 -0.00854425 0.00232026 0.00885369 0.0237341
0.19 0.04 -0.00976149 0.00247183 0.0100696 0.0236401
0.2 0.04 -0.011049 0.00262084 0.0113556 0.0235448
0.21 0.04 -0.0124051 0.00276728 0.0127101 0.0234486
0.22 0.04 -0.0138281 0.00291086 0.0141312 0.0233518
0.23 0.04 -0.0153159 0.00305108 0.0156169 0.0232548
0.24 0.04 -0.016866 0.00318711 0.0171645 0.0231581
0.25 0.04 -0.0184753 0.00331784 0.0187708 0.0230622
0.26 0.04 -0.0201402 0.00344199 0.0204322 0.0229677
0.27 0.04 -0.0218565 0.00355809 0.0221442 0.0228754
0.28 0.04 -0.0236191 0.00366451 0.0239016 0.0227858
0.29 0.04 -0.0254222 0.00375951 0.0256987 0.0226997
0.3 0.04 -0.0272592 0.00384124 0.0275286 0.022618
0.31 0.04 -0.0291228 0.0039078 0.0293838 0.0225416
0.32 0.04 -0.0310044 0.00395724 0.031256 0.0224713
0.33 0.04 -0.0328951 0.00398765 0.0331359 0.0224081
0.34 0.04 -0.0347848 0.00399712 0.0350137 0.0223529
0.35 0.04 -0.0366629 0.00398384 0.0368787 0.0223067
0.36 0.04 -0.0385177 0.00394607 0.0387193 0.0222704
0.37 0.04 -0.0403369 0.00388211 0.0405233 0.0222453
0.38 0.04 -0.0421068 0.00378965 0.042277 0.0222324
0.39 0.04 -0.0438148 0.00366702 0.043968 0.0222316
0.4 0.04 -0.0454491 0.00351445 0.0455848 0.0222435
0.41 0.04 -0.0469967 0.0033319 0.0471147 0.0222691
0.42 0.04 -0.0484433 0.00311851 0.0485436 0.0223093
0.43 0.04 -0.049775 0.00287407 0.0498579 0.0223642
0.44 0.04 -0.0509785 0.00259871 0.0510447 0.0224341
0.45 0.04 -0.0520411 0.00229317 0.0520916 0.0225189
0.46 0.04 -0.0529506 0.00195894 0.0529869 0.0226186
0.47 0.04 -0.0536958 0.00159785 0.0537195 0.022733
0.48 0.04 -0.0542656 0.00121208 0.0542791 0.0228615
0.49 0.04 -0.0546506 0.000804523 0.0546565 0.0230029
0.5 0.04 -0.0548428 0.000378207 0.0548441 0.023156
0.51 0.04 -0.0548358 -6.39295e-05 0.0548358 0.0233191
0.52 0.04 -0.0546246 -0.000518507 0.0546271 0.0234906
0.53 0.04 -0.0542062 -0.000981556 0.054215 0.0236689
0.54 0.04 -0.0535786 -0.00144866 0.0535982 0.0238519
0.55 0.04 -0.0527418 -0.00191533 0.0527765 0.0240375
0.56 0.04 -0.0516975 -0.00237696 0.0517521 0.0242232
0.57 0.04 -0.0504503 -0.00282865 0.0505296 0.0244062
0.58 0.04 -0.0490068 -0.00326529 0.0491155 0.0245839
0.59 0.04 -0.0473754 -0.00368181 0.0475183 0.0247538
0.6 0.04 -0.0455667 -0.00407323 0.0457484 0.0249131
0.61 0.04 -0.0435929 -0.00443474 0.0438178 0.0250594
0.62 0.04 -0.0414683 -0.00476179 0.0417408 0.0251902
0.63 0.04 -0.039209 -0.0050501 0.0395328 0.0253031
0.64 0.04 -0.0368326 -0.00529574 0.0372114 0.0253964
0.65 0.04 -0.0343581 -0.00549526 0.0347948 0.0254684
0.66 0.04 -0.0318066 -0.00564569 0.0323038 0.025517
0.67 0.04 -0.0292021 -0.00574448 0.0297618 0.025541
0.68 0.04 -0.0265661 -0.00578989 0.0271897 0.0255416
0.69 0.04 -0.0239163 -0.00578142 0.0246051 0.0255192
0.7 0.04 -0.021274 -0.00571968 0.0220295 0.025472
0.71 0.04 -0.0186642 -0.00560584 0.0194879 0.0254007
0.72 0.04 -0.01611 -0.0054416 0.0170042 0.0253069
0.73 0.04 -0.0136325 -0.00522936 0.014601 0.0251921
0.74 0.04 -0.0112519 -0.00497221 0.0123015 0.025058
0.75 0.04 -0.00898713 -0.00467396 0.0101299 0.0249066
0.76 0.04 -0.00685561 -0.00433898 0.00811333 0.0247403
0.77 0.04 -0.0048728 -0.00397218 0.00628668 0.0245615
0.78 0.04 -0.0030522 -0.00357887 0.00470364 0.024373
0.79 0.04 -0.00140506 -0.00316473 0.00346262 0.0241775
0.8 0.04 5.95922e-05 -0.00273563 0.00273628 0.0239776
0.81 0.04 0.00133484 -0.00229745 0.00265708 0.0237759
0.82 0.04 0.00241667 -0.00185596 0.00304711 0.0235755
0.83 0.04 0.00330427 -0.00141685 0.00359523 0.0233787
0.84 0.04 0.00399923 -0.000985838 0.00411895 0.023188
0.85 0.04 0.00450541 -0.000568597 0.00454115 0.0230053
0.86 0.04 0.00482917 -0.000170704 0.00483219 0.0228327
0.87 0.04 0.00497938 0.000202327 0.00498348 0.0226719
0.88 0.04 0.0049673 0.00054517 0.00499713 0.0225242
0.89 0.04 0.00480671 0.000852339 0.00488169 0.022391
0.9 0.04 0.00451398 0.00111791 0.00465035 0.0222735
0.91 0.04 0.00410828 0.00133554 0.00431991 0.0221725
0.92 0.04 0.00361154 0.00149805 0.0039099 0.0220887
0.93 0.04 0.00304827 0.00159736 0.00344144 0.0220225
0.94 0.04 0.00244575 0.00162471 0.00293622 0.0219742
0.95 0.04 0.00183538 0.00157087 0.00241583 0.0219442
0.96 0.04 0.00125098 0.0014273 0.00189793 0.0219317
0.97 0.04 0.000726509 0.0011884 0.00139288 0.0219356
0.98 0.04 0.00029242 0.000855907 0.000904481 0.0219531
0.99 0.04 3.51582e-05 0.000442018 0.000443414 0.0220131
1 0.04 0 0 0 0.0220618
0 0.05 0 0 0 0.024826
0.01 0.05 2.22063e-05 -0.000249436 0.000250422 0.0248268
0.02 0.05 3.91269e-05 -0.000317727 0.000320127 0.0248212
0.03 0.05 2.28779e-05 -0.000253082 0.000254114 0.0248029
0.04 0.05 -5.61063e-05 -9.37024e-05 0.000109216 0.0247745
0.05 0.05 -0.000216503 0.000130061 0.000252565 0.0247373
0.06 0.05 -0.000470577 0.000394805 0.000614259 0.0246926
0.07 0.05 -0.000825915 0.000682835 0.00107163 0.0246411
0.08 0.05 -0.00128659 0.000981285 0.0016181 0.0245838
0.09 0.05 -0.00185408 0.00128129 0.00225374 0.0245214
0.1 0.05 -0.00252801 0.00157714 0.00297963 0.0244546
0.11 0.05 -0.00330681 0.0018655 0.00379672 0.0243839
0.12 0.05 -0.00418822 0.0021448 0.00470546 0.0243098
0.13 0.05 -0.00516966 0.00241469 0.0057058 0.0242326
0.14 0.05 -0.00624851 0.00267562 0.00679727 0.0241525
0.15 0.05 -0.00742219 0.00292851 0.00797904 0.0240699
0.16 0.05 -0.00868827 0.00317442 0.00925003 0.023985
0.17 0.05 -0.0100445 0.00341438 0.010609 0.023898
0.18 0.05 -0.0114889 0.00364923 0.0120545 0.0238089
0.19 0.05 -0.0130193 0.00387949 0.013585 0.0237182
0.2 0.05 -0.0146336 0.00410533 0.0151986 0.0236259
0.21 0.05 -0.0163297 0.00432655 0.0168931 0.0235324
0.22 0.05 -0.0181048 0.00454256 0.018666 0.023438
0.23 0.05 -0.0199561 0.00475239 0.0205142 0.0233431
0.24 0.05 -0.0218801 0.00495473 0.0224341 0.0232481
0.25 0.05 -0.0238726 0.00514791 0.0244214 0.0231535
0.26 0.05 -0.0259287 0.0053299 0.0264708 0.0230599
0.27 0.05 -0.0280425 0.00549846 0.0285764 0.0229679
0.28 0.05 -0.0302074 0.00565112 0.0307315 0.0228781
0.29 0.05 -0.032416 0.00578525 0.0329282 0.0227914
0.3 0.05 -0.0346597 0.0058981 0.0351579 0.0227084
0.31 0.05 -0.036929 0.00598687 0.0374111 0.0226301
0.32 0.05 -0.0392134 0.00604873 0.0396771 0.0225573
0.33 0.05 -0.0415015 0.00608085 0.0419446 0.022491
0.34 0.05 -0.0437811 0.00608053 0.0442013 0.0224321
0.35 0.05 -0.0460389 0.00604514 0.0464341 0.0223815
0.36 0.05 -0.0482613 0.00597212 0.0486294 0.0223402
0.37 0.05 -0.0504335 0.00585915 0.0507727 0.022309
0.38 0.05 -0.05254 0.0057037 0.0528487 0.0222892
0.39 0.05 -0.054565 0.00550337 0.0548418 0.0222815
0.4 0.05 -0.0564939 0.00525753 0.0567381 0.0222859
0.41 0.05 -0.0583122 0.00496651 0.0585233 0.0223034
0.42 0.05 -0.0600039 0.00463002 0.0601822 0.0223351
0.43 0.05 -0.0615529 0.00424818 0.0616993 0.0223814
0.44 0.05 -0.0629443 0.00382194 0.0630603 0.0224426
0.45 0.05 -0.0641634 0.00335283 0.064251 0.0225191
0.46 0.05 -0.0651968 0.00284295 0.0652587 0.0226103
0.47 0.05 -0.0660319 0.00229523 0.0660718 0.0227158
0.48 0.05 -0.0666576 0.00171294 0.0666796 0.0228351
0.49 0.05 -0.0670638 0.00109962 0.0670728 0.0229672
0.5 0.05 -0.0672423 0.00045946 0.0672438 0.0231109
0.51 0.05 -0.0671864 -0.000202871 0.0671867 0.0232651
0.52 0.05 -0.0668911 -0.000881995 0.066897 0.0234283
0.53 0.05 -0.0663533 -0.00157195 0.0663719 0.0235986
0.54 0.05 -0.0655718 -0.00226639 0.065611 0.0237741
0.55 0.05 -0.0645473 -0.00295871 0.0646151 0.0239525
0.56 0.05 -0.0632827 -0.00364217 0.0633874 0.0241315
0.57 0.05 -0.0617835 -0.0043097 0.0619336 0.0243084
0.58 0.05 -0.0600576 -0.00495403 0.0602616 0.0244806
0.59 0.05 -0.0581151 -0.00556794 0.0583812 0.0246455
0.6 0.05 -0.055968 -0.00614431 0.0563043 0.0248005
0.61 0.05 -0.0536307 -0.00667629 0.0540447 0.024943
0.62 0.05 -0.0511194 -0.00715737 0.051618 0.0250707
0.63 0.05 -0.0484523 -0.00758154 0.0490419 0.0251813
0.64 0.05 -0.0456493 -0.0079433 0.0463352 0.0252728
0.65 0.05 -0.0427316 -0.00823781 0.0435184 0.0253436
0.66 0.05 -0.0397232 -0.00846094 0.0406143 0.0253916
0.67 0.05 -0.0366503 -0.00860915 0.0376479 0.0254155
0.68 0.05 -0.0335375 -0.00868012 0.0346426 0.0254165
0.69 0.05 -0.0304057 -0.00867333 0.0316186 0.0253948
0.7 0.05 -0.027279 -0.00858924 0.0285993 0.025349
0.71 0.05 -0.0241853 -0.00842909 0.0256121 0.0252794
0.72 0.05 -0.0211508 -0.00819516 0.022683 0.0251879
0.73 0.05 -0.0181996 -0.00789078 0.0198366 0.0250758
0.74 0.05 -0.015355 -0.00752031 0.0170977 0.0249448
0.75 0.05 -0.0126389 -0.00708906 0.0144912 0.024797
0.76 0.05 -0.0100716 -0.00660319 0.0120432 0.0246347
0.77 0.05 -0.00767133 -0.00606964 0.00978212 0.0244604
0.78 0.05 -0.00545424 -0.00549599 0.00774304 0.0242767
0.79 0.05 -0.00343396 -0.00489028 0.00597552 0.0240863
0.8 0.05 -0.0016216 -0.00426091 0.00455905 0.023892
0.81 0.05 -2.57913e-05 -0.00361647 0.00361656 0.0236963
0.82 0.05 0.00134808 -0.00296549 0.00325752 0.023502
0.83 0.05 0.00249801 -0.00231646 0.00340677 0.0233115
0.84 0.05 0.00342474 -0.00167792 0.00381369 0.023127