Variables = x, y, u, v, umag, p
ZONE I= 151 J= 51 F=point
0 0 0.0099 0 0.0099 -0.0132352
0.0703713 0 0 1.69407e-21 1.69407e-21 -0.0183861
0.140743 0 1.73472e-18 0 1.73472e-18 -0.0199667
0.211114 0 0 0 0 -0.0215811
0.281485 0 0 2.11758e-22 2.11758e-22 -0.0231283
0.351857 0 0 -2.11758e-22 2.11758e-22 -0.024679
0.422228 0 1.73472e-18 -2.11758e-22 1.73472e-18 -0.0262351
0.492599 0 -1.73472e-18 0 1.73472e-18 -0.0278026
0.562971 0 -1.73472e-18 0 1.73472e-18 -0.0293834
0.633342 0 0 0 0 -0.0309791
0.703713 0 0 4.23516e-22 4.23516e-22 -0.0325901
0.774085 0 -1.73472e-18 0 1.73472e-18 -0.0342189
0.844456 0 1.73472e-18 4.23516e-22 1.73472e-18 -0.0358664
0.914827 0 -1.73472e-18 -4.23516e-22 1.73472e-18 -0.0375365
0.985199 0 1.73472e-18 0 1.73472e-18 -0.0392307
1.05557 0 0 -4.23516e-22 4.23516e-22 -0.0409542
1.12594 0 0 0 0 -0.0427087
1.19631 0 0 0 0 -0.0445018
1.26668 0 0 0 0 -0.0463359
1.33706 0 0 0 0 -0.0482219
1.40743 0 0 0 0 -0.0501626
1.4778 0 0 0 0 -0.0521749
1.54817 0 0 -1.69407e-21 1.69407e-21 -0.0542618
1.61854 0 1.73472e-18 1.69407e-21 1.73472e-18 -0.0564515
1.68891 0 -1.73472e-18 -3.38813e-21 1.73473e-18 -0.0587467
1.75928 0 1.73472e-18 -3.38813e-21 1.73473e-18 -0.0612009
1.82965 0 0 0 0 -0.0638212
1.90003 0 -1.73472e-18 1.35525e-20 1.73478e-18 -0.0667284
1.9704 0 1.73472e-18 0 1.73472e-18 -0.0700207
2.04077 -0.00166634 -1.73472e-18 0 1.73472e-18 -0.0739976
2.11114 -0.0125128 -8.67362e-19 0 8.67362e-19 -0.0760363
2.18151 -0.0341173 8.67362e-19 0 8.67362e-19 -0.0730574
2.25188 -0.0680912 1.0842e-19 5.42101e-20 1.21217e-19 -0.0664811
2.32225 -0.117717 -2.1684e-19 0 2.1684e-19 -0.0593663
2.39263 -0.176764 -2.1684e-19 2.1684e-19 3.06659e-19 -0.0542647
2.463 -0.235812 2.1684e-19 2.1684e-19 3.06659e-19 -0.051485
2.53337 -0.294859 0 -2.1684e-19 2.1684e-19 -0.0497662
2.60374 -0.353906 2.1684e-19 -2.1684e-19 3.06659e-19 -0.048542
2.67411 -0.412954 -2.1684e-19 0 2.1684e-19 -0.0476993
2.74448 -0.472001 2.1684e-19 -1.0842e-19 2.42435e-19 -0.0470606
2.81485 -0.531049 0 -1.0842e-19 1.0842e-19 -0.0465762
2.88522 -0.590096 0 1.0842e-19 1.0842e-19 -0.046182
2.9556 -0.649144 0 1.0842e-19 1.0842e-19 -0.0458477
3.02597 -0.708191 0 1.0842e-19 1.0842e-19 -0.0455491
3.09634 -0.767239 1.0842e-19 1.0842e-19 1.53329e-19 -0.0452821
3.16671 -0.826286 0 -1.0842e-19 1.0842e-19 -0.0450421
3.23708 -0.885317 1.0842e-19 0 1.0842e-19 -0.0449041
3.30745 -0.934009 1.0842e-19 -5.42101e-20 1.21217e-19 -0.0448844
3.37782 -0.967283 1.0842e-19 -2.71051e-20 1.11757e-19 -0.0448957
3.4482 -0.988302 0 0 0 -0.044916
3.51857 -0.998618 0 6.77626e-21 6.77626e-21 -0.0449577
3.58894 -1 1.0842e-19 0 1.0842e-19 -0.0449676
3.65931 -1 -1.0842e-19 -1.69407e-21 1.08433e-19 -0.0449339
3.72968 -1 0 1.69407e-21 1.69407e-21 -0.0448942
3.80005 -1 -2.1684e-19 1.69407e-21 2.16847e-19 -0.0448415
3.87042 -1 0 -1.69407e-21 1.69407e-21 -0.0447801
3.94079 -1 -2.1684e-19 1.69407e-21 2.16847e-19 -0.0447089
4.01117 -1 2.1684e-19 1.69407e-21 2.16847e-19 -0.0446284
4.08154 -1 0 1.69407e-21 1.69407e-21 -0.0445381
4.15191 -1 2.1684e-19 0 2.1684e-19 -0.0444383
4.22228 -1 -2.1684e-19 0 2.1684e-19 -0.0443288
4.29265 -1 -2.1684e-19 1.69407e-21 2.16847e-19 -0.0442097
4.36302 -1 -2.1684e-19 0 2.1684e-19 -0.0440809
4.43339 -1 0 1.69407e-21 1.69407e-21 -0.0439426
4.50377 -1 0 1.69407e-21 1.69407e-21 -0.0437947
4.57414 -1 0 1.69407e-21 1.69407e-21 -0.0436374
4.64451 -1 -4.33681e-19 1.69407e-21 4.33684e-19 -0.0434707
4.71488 -1 0 0 0 -0.0432947
4.78525 -1 -4.33681e-19 1.69407e-21 4.33684e-19 -0.0431096
4.85562 -1 4.33681e-19 -1.69407e-21 4.33684e-19 -0.0429155
4.92599 -1 4.33681e-19 1.69407e-21 4.33684e-19 -0.0427125
4.99636 -1 -4.33681e-19 0 4.33681e-19 -0.0425006
5.06674 -1 0 0 0 -0.0422798
5.13711 -1 0 -1.69407e-21 1.69407e-21 -0.0420499
5.20748 -1 4.33681e-19 -1.69407e-21 4.33684e-19 -0.0418107
5.27785 -1 4.33681e-19 0 4.33681e-19 -0.0415615
5.34822 -1 4.33681e-19 1.69407e-21 4.33684e-19 -0.0413017
5.41859 -1 -4.33681e-19 0 4.33681e-19 -0.0410301
5.48896 -1 -4.33681e-19 -1.69407e-21 4.33684e-19 -0.0407453
5.55934 -1 -4.33681e-19 0 4.33681e-19 -0.0404454
5.62971 -1 4.33681e-19 0 4.33681e-19 -0.0401289
5.70008 -1 0 -1.69407e-21 1.69407e-21 -0.0397926
5.77045 -1 0 0 0 -0.0394372
5.84082 -1 -4.33681e-19 6.35275e-22 4.33681e-19 -0.0390521
5.91119 -1 0 0 0 -0.0386791
5.98156 -1 -4.33681e-19 0 4.33681e-19 -0.0382263
6.05193 -1 4.33681e-19 0 4.33681e-19 -0.038077
6.12231 -0.990625 4.33681e-19 5.42101e-20 4.37056e-19 -0.0379859
6.19268 -0.98125 -4.33681e-19 0 4.33681e-19 -0.0376422
6.26305 -0.971875 4.33681e-19 0 4.33681e-19 -0.0373218
6.33342 -0.9625 0 -5.42101e-20 5.42101e-20 -0.0369111
6.40379 -0.953125 0 0 0 -0.0364567
6.47416 -0.94375 -8.67362e-19 0 8.67362e-19 -0.0359402
6.54453 -0.934375 0 -1.0842e-19 1.0842e-19 -0.0353642
6.61491 -0.925 -8.67362e-19 0 8.67362e-19 -0.0347224
6.68528 -0.915625 8.67362e-19 1.0842e-19 8.74112e-19 -0.034012
6.75565 -0.90625 8.67362e-19 1.0842e-19 8.74112e-19 -0.0332281
6.82602 -0.896875 0 -1.0842e-19 1.0842e-19 -0.0323669
6.89639 -0.8875 -8.67362e-19 -1.0842e-19 8.74112e-19 -0.0314239
6.96676 -0.878125 -8.67362e-19 0 8.67362e-19 -0.0303952
7.03713 -0.86875 0 0 0 -0.0292769
7.1075 -0.859375 8.67362e-19 1.0842e-19 8.74112e-19 -0.0280656
7.17788 -0.85 8.67362e-19 0 8.67362e-19 -0.0267587
7.24825 -0.840625 0 0 0 -0.0253539
7.31862 -0.83125 0 0 0 -0.0238501
7.38899 -0.821875 8.67362e-19 0 8.67362e-19 -0.0222472
7.45936 -0.8125 0 0 0 -0.0205462
7.52973 -0.803125 0 0 0 -0.0187495
7.6001 -0.79375 8.67362e-19 1.0842e-19 8.74112e-19 -0.0168609
7.67048 -0.784375 0 1.0842e-19 1.0842e-19 -0.0148858
7.74085 -0.775 0 1.0842e-19 1.0842e-19 -0.0128312
7.81122 -0.765625 0 1.0842e-19 1.0842e-19 -0.0107057
7.88159 -0.75625 -8.67362e-19 -1.0842e-19 8.74112e-19 -0.00851967
7.95196 -0.746875 -8.67362e-19 1.0842e-19 8.74112e-19 -0.00628493
8.02233 -0.7375 -8.67362e-19 1.0842e-19 8.74112e-19 -0.00401498
8.0927 -0.728125 8.67362e-19 0 8.67362e-19 -0.00172415
8.16307 -0.71875 -8.67362e-19 1.0842e-19 8.74112e-19 0.000571369
8.23345 -0.709375 0 0 0 0.00285352
8.30382 -0.7 -8.67362e-19 -1.0842e-19 8.74112e-19 0.00510421
8.37419 -0.690625 -8.67362e-19 0 8.67362e-19 0.00730576
8.44456 -0.68125 0 0 0 0.00944038
8.51493 -0.671875 4.33681e-19 5.42101e-20 4.37056e-19 0.0114907
8.5853 -0.6625 0 -5.42101e-20 5.42101e-20 0.0134388
8.65567 -0.653125 0 0 0 0.0152692
8.72605 -0.64375 -2.1684e-19 0 2.1684e-19 0.0169674
8.79642 -0.634375 -2.1684e-19 0 2.1684e-19 0.0185206
8.86679 -0.625 -1.0842e-19 -2.71051e-20 1.11757e-19 0.0199163
8.93716 -0.615625 -1.35525e-20 6.77626e-21 1.51522e-20 0.0211454
9.00753 -0.60625 0 0 0 0.022199
9.0779 -0.596875 0 1.35525e-20 1.35525e-20 0.023072
9.14827 -0.5875 2.1684e-19 0 2.1684e-19 0.0237587
9.21864 -0.578125 0 0 0 0.0242592
9.28902 -0.568749 0 5.42101e-20 5.42101e-20 0.0245684
9.35939 -0.559374 4.33681e-19 5.42101e-20 4.37056e-19 0.0246997
9.42976 -0.549999 4.33681e-19 5.42101e-20 4.37056e-19 0.0246582
9.50013 -0.540624 0 0 0 0.0244353
9.5705 -0.531249 8.67362e-19 1.0842e-19 8.74112e-19 0.0240213
9.64087 -0.521874 0 -1.0842e-19 1.0842e-19 0.0234323
9.71124 -0.512499 -8.67362e-19 0 8.67362e-19 0.0226694
9.78162 -0.503124 0 1.0842e-19 1.0842e-19 0.0217475
9.85199 -0.493749 8.67362e-19 0 8.67362e-19 0.0206604
9.92236 -0.484374 0 0 0 0.019428
9.99273 -0.474999 0 0 0 0.0180371
10.0631 -0.465624 1.73472e-18 -1.0842e-19 1.73811e-18 0.0165157
10.1335 -0.456249 -1.73472e-18 0 1.73472e-18 0.0148393
10.2038 -0.446874 0 -2.1684e-19 2.1684e-19 0.0130486
10.2742 -0.437499 -1.73472e-18 2.1684e-19 1.74822e-18 0.0110836
10.3446 -0.428124 0 0 0 0.00902513
10.415 -0.418749 -1.73472e-18 0 1.73472e-18 0.00672741
10.4853 -0.409374 1.73472e-18 0 1.73472e-18 0.00442303
10.5557 -0.399999 0.0105689 0.00122937 0.0106402 0.00172242
0 0.02 0.0771716 -7.65067e-05 0.0771716 -0.0176362
0.0703713 0.02 0.0769525 -0.000115831 0.0769526 -0.0183874
0.140743 0.02 0.0778482 -5.07833e-05 0.0778482 -0.0199779
0.211114 0.02 0.0781958 -2.07718e-05 0.0781958 -0.0215876
0.281485 0.02 0.0783287 -2.04595e-05 0.0783287 -0.0231315
0.351857 0.02 0.0784587 -2.24616e-05 0.0784587 -0.0246819
0.422228 0.02 0.0785875 -2.40218e-05 0.0785875 -0.026238
0.492599 0.02 0.0787209 -2.52103e-05 0.0787209 -0.0278057
0.562971 0.02 0.0788645 -2.69481e-05 0.0788645 -0.0293866
0.633342 0.02 0.079016 -2.88131e-05 0.079016 -0.0309825
0.703713 0.02 0.0791814 -3.14862e-05 0.0791814 -0.0325938
0.774085 0.02 0.0793592 -3.45274e-05 0.0793592 -0.034223
0.844456 0.02 0.0795592 -3.86714e-05 0.0795592 -0.0358709
0.914827 0.02 0.079778 -4.29861e-05 0.079778 -0.0375415
0.985199 0.02 0.0800277 -4.86104e-05 0.0800277 -0.0392364
1.05557 0.02 0.0803028 -5.45838e-05 0.0803028 -0.0409605
1.12594 0.02 0.0806212 -6.24562e-05 0.0806213 -0.0427159
1.19631 0.02 0.0809743 -7.07483e-05 0.0809743 -0.04451
1.26668 0.02 0.0813888 -8.16939e-05 0.0813888 -0.0463453
1.33706 0.02 0.0818491 -9.33451e-05 0.0818491 -0.0482327
1.40743 0.02 0.0823991 -0.00010903 0.0823991 -0.0501751
1.4778 0.02 0.0830095 -0.000126093 0.0830096 -0.0521895
1.54817 0.02 0.0837588 -0.000149796 0.083759 -0.0542787
1.61854 0.02 0.084588 -0.000177192 0.0845882 -0.0564718
1.68891 0.02 0.0856574 -0.000217844 0.0856577 -0.0587706
1.75928 0.02 0.0868422 -0.000273311 0.0868426 -0.0612311
1.82965 0.02 0.0885388 -0.000374285 0.0885396 -0.0638579
1.90003 0.02 0.0905206 -0.00060459 0.0905227 -0.0667797
1.9704 0.02 0.0943808 -0.00165737 0.0943954 -0.0700197
2.04077 0.018367 0.0930563 -0.00590013 0.0932431 -0.0737322
2.11114 0.00773744 0.0751057 -0.0109281 0.0758965 -0.075566
2.18151 -0.013435 0.045331 -0.0109123 0.046626 -0.0727586
2.25188 -0.0467294 0.0161192 -0.00455681 0.0167509 -0.0665714
2.32225 -0.0953622 -0.0023418 0.00330835 0.00405329 -0.0597168
2.39263 -0.153229 -0.00878333 0.00695072 0.0112009 -0.0546072
2.463 -0.211095 -0.00952132 0.00735972 0.0120342 -0.0517308
2.53337 -0.268962 -0.00920923 0.00724261 0.011716 -0.0499498
2.60374 -0.326828 -0.00874887 0.00690443 0.0111451 -0.0486844
2.67411 -0.384695 -0.00815079 0.00647197 0.0104078 -0.0478113
2.74448 -0.442561 -0.00763566 0.00609283 0.00976862 -0.0471516
2.81485 -0.500428 -0.00718079 0.00576237 0.00920698 -0.0466517
2.88522 -0.558294 -0.00682647 0.00550262 0.0087681 -0.0462477
2.9556 -0.616161 -0.00653425 0.00527404 0.00839714 -0.0459077
3.02597 -0.674028 -0.00624685 0.00501562 0.00801122 -0.0456066
3.09634 -0.731894 -0.005885 0.00465395 0.00750283 -0.0453393
3.16671 -0.789761 -0.00526202 0.00403206 0.00662921 -0.0450945
3.23708 -0.847611 -0.00447774 0.00310249 0.00544753 -0.0449393
3.30745 -0.895328 -0.00404729 0.00220454 0.00460875 -0.0449004
3.37782 -0.927937 -0.00407301 0.00154999 0.00435797 -0.0448992
3.4482 -0.948536 -0.00431205 0.00104036 0.00443577 -0.0449092
3.51857 -0.958645 -0.00486979 0.000638126 0.00491142 -0.0449406
3.58894 -0.96 -0.00580358 0.00039324 0.00581689 -0.0449453
3.65931 -0.96 -0.00673184 0.0002916 0.00673815 -0.0449127
3.72968 -0.96 -0.00750811 0.000249299 0.00751225 -0.0448753
3.80005 -0.96 -0.00822411 0.000227526 0.00822725 -0.044824
3.87042 -0.96 -0.00889077 0.000215611 0.00889339 -0.0447636
3.94079 -0.96 -0.00952942 0.000207134 0.00953167 -0.0446932
4.01117 -0.96 -0.0101446 0.000200679 0.0101465 -0.0446132
4.08154 -0.96 -0.0107412 0.000195192 0.010743 -0.0445234
4.15191 -0.96 -0.0113214 0.000190365 0.011323 -0.044424
4.22228 -0.96 -0.011887 0.000185937 0.0118884 -0.0443148
4.29265 -0.96 -0.0124388 0.00018179 0.0124402 -0.0441961
4.36302 -0.96 -0.0129779 0.000177835 0.0129791 -0.0440676
4.43339 -0.96 -0.0135046 0.000174029 0.0135057 -0.0439296
4.50377 -0.96 -0.0140195 0.000170358 0.0140205 -0.043782
4.57414 -0.96 -0.0145231 0.000166851 0.0145241 -0.043625
4.64451 -0.96 -0.0150162 0.000163563 0.0150171 -0.0434585
4.71488 -0.96 -0.0154995 0.000160596 0.0155003 -0.0432828
4.78525 -0.96 -0.0159742 0.000158076 0.015975 -0.0430979
4.85562 -0.96 -0.016442 0.000156174 0.0164428 -0.0429039
4.92599 -0.96 -0.016905 0.000155073 0.0169057 -0.0427009
4.99636 -0.96 -0.0173658 0.00015498 0.0173665 -0.0424891
5.06674 -0.96 -0.0178274 0.000156071 0.0178281 -0.0422682
5.13711 -0.96 -0.0182933 0.000158502 0.018294 -0.0420382
5.20748 -0.96 -0.0187673 0.000162308 0.018768 -0.0417987
5.27785 -0.96 -0.0192526 0.000167417 0.0192534 -0.0415493
5.34822 -0.96 -0.0197521 0.00017347 0.0197529 -0.0412892
5.41859 -0.96 -0.0202667 0.000179846 0.0202675 -0.0410172
5.48896 -0.96 -0.0207951 0.000185329 0.0207959 -0.0407323
5.55934 -0.96 -0.0213306 0.000188197 0.0213314 -0.0404325
5.62971 -0.96 -0.0218617 0.000185323 0.0218625 -0.0401166
5.70008 -0.96 -0.0223622 0.000172057 0.0223628 -0.039782
5.77045 -0.96 -0.0228003 0.000137548 0.0228007 -0.0394299
5.84082 -0.96 -0.0230547 6.00913e-05 0.0230548 -0.0390503
5.91119 -0.96 -0.0231379 -0.000113486 0.0231382 -0.0386879
5.98156 -0.96 -0.0223416 -0.000488202 0.0223469 -0.0382437
6.05193 -0.96 -0.0215197 -0.00138814 0.0215644 -0.0380633
6.12231 -0.950812 -0.0229246 -0.0022916 0.0230388 -0.0379318
6.19268 -0.941625 -0.0249244 -0.00267413 0.0250675 -0.0375838
6.26305 -0.932437 -0.0263752 -0.00292639 0.026537 -0.0372645
6.33342 -0.92325 -0.0279149 -0.00314548 0.0280915 -0.0368512
6.40379 -0.914062 -0.029331 -0.00333892 0.0295204 -0.0363955
6.47416 -0.904875 -0.0307526 -0.00353225 0.0309548 -0.0358765
6.54453 -0.895687 -0.0321392 -0.00371792 0.0323535 -0.0352983
6.61491 -0.8865 -0.0335076 -0.00390252 0.0337341 -0.034654
6.68528 -0.877312 -0.0348451 -0.00408391 0.0350836 -0.0339412
6.75565 -0.868125 -0.0361487 -0.00426324 0.0363993 -0.033155
6.82602 -0.858937 -0.0374078 -0.00443933 0.0376703 -0.0322915
6.89639 -0.84975 -0.0386128 -0.00461174 0.0388873 -0.0313463
6.96676 -0.840562 -0.0397513 -0.00477921 0.0400376 -0.0303156
7.03713 -0.831375 -0.0408102 -0.00494057 0.0411082 -0.0291955
7.1075 -0.822187 -0.0417749 -0.00509425 0.0420843 -0.0279828
7.17788 -0.813 -0.0426298 -0.00523859 0.0429505 -0.0266747
7.24825 -0.803812 -0.043359 -0.0053717 0.0436905 -0.0252691
7.31862 -0.794625 -0.0439458 -0.00549157 0.0442876 -0.023765
7.38899 -0.785437 -0.0443735 -0.00559605 0.044725 -0.0221622
7.45936 -0.77625 -0.0446257 -0.00568292 0.0449861 -0.0204618
7.52973 -0.767062 -0.0446865 -0.00574989 0.0450549 -0.0186663
7.6001 -0.757875 -0.0445409 -0.00579469 0.0449163 -0.0167795
7.67048 -0.748687 -0.0441753 -0.00581511 0.0445564 -0.0148067
7.74085 -0.7395 -0.0435775 -0.005809 0.043963 -0.0127551
7.81122 -0.730312 -0.0427372 -0.00577442 0.0431255 -0.0106332
7.88159 -0.721125 -0.041646 -0.00570954 0.0420355 -0.00845144
7.95196 -0.711937 -0.0402982 -0.00561266 0.0406872 -0.00622166
8.02233 -0.70275 -0.0386909 -0.00548224 0.0390774 -0.0039573
8.0927 -0.693562 -0.0368224 -0.00531664 0.0372042 -0.00167272
8.16307 -0.684375 -0.0346934 -0.00511505 0.0350685 0.000615946
8.23345 -0.675187 -0.0323127 -0.00487849 0.0326789 0.00289076
8.30382 -0.666 -0.0296937 -0.00460744 0.030049 0.0051337
8.37419 -0.656812 -0.0268502 -0.00430212 0.0271926 0.00732713
8.44456 -0.647625 -0.0237977 -0.00396245 0.0241253 0.0094532
8.51493 -0.638437 -0.0205537 -0.00359093 0.020865 0.0114946
8.5853 -0.62925 -0.0171382 -0.00319308 0.0174331 0.0134339
8.65567 -0.620062 -0.0135732 -0.00277125 0.0138532 0.0152555
8.72605 -0.610875 -0.00988252 -0.00232408 0.0101521 0.0169448
8.79642 -0.601687 -0.00608827 -0.00185466 0.00636449 0.0184892
8.86679 -0.5925 -0.00221555 -0.00136664 0.00260314 0.0198763
8.93716 -0.583312 0.00171285 -0.000864041 0.00191845 0.0210969
9.00753 -0.574125 0.00567087 -0.00034955 0.00568163 0.0221424
9.0779 -0.564937 0.00963862 0.000172554 0.00964017 0.0230077
9.14827 -0.55575 0.0135885 0.000700185 0.0136066 0.0236873
9.21864 -0.546562 0.0175081 0.00122883 0.0175512 0.0241811
9.28902 -0.537374 0.0213542 0.00175242 0.021426 0.0244845
9.35939 -0.528187 0.0250977 0.00226054 0.0251993 0.0246107
9.42976 -0.518999 0.0287653 0.0027631 0.0288977 0.0245636
9.50013 -0.509812 0.0324043 0.00326964 0.0325688 0.0243347
9.5705 -0.500624 0.035961 0.00377348 0.0361584 0.0239155
9.64087 -0.491437 0.0394199 0.00426059 0.0396495 0.0233224
9.71124 -0.482249 0.042748 0.00473372 0.0430093 0.0225556
9.78162 -0.473062 0.0459846 0.00518932 0.0462765 0.0216303
9.85199 -0.463874 0.0490842 0.00563183 0.0494063 0.0205398
9.92236 -0.454687 0.0521116 0.0060565 0.0524624 0.0193045
9.99273 -0.445499 0.0549889 0.00646735 0.0553679 0.0179104
10.0631 -0.436312 0.05784 0.00685659 0.058245 0.0163863
10.1335 -0.427124 0.0605169 0.00723251 0.0609475 0.0147064
10.2038 -0.417937 0.063276 0.00759063 0.0637297 0.0129127
10.2742 -0.408749 0.0658141 0.00793292 0.0662904 0.0109422
10.3446 -0.399562 0.0686719 0.00826026 0.0691669 0.00887975
10.415 -0.390374 0.0711133 0.00849907 0.0716194 0.00657435
10.4853 -0.381187 0.0747631 0.00873072 0.0752712 0.00426512
10.5557 -0.371999 0.0779109 0.00886793 0.0784139 0.00164581
0 0.04 0.151912 -0.000107404 0.151912 -0.0176154
0.0703713 0.04 0.151305 -0.000227519 0.151305 -0.0183832
0.140743 0.04 0.152464 -0.000184148 0.152464 -0.019992
0.211114 0.04 0.153089 -0.000102744 0.153089 -0.0215991
0.281485 0.04 0.153372 -7.58292e-05 0.153372 -0.0231377
0.351857 0.04 0.153617 -7.39816e-05 0.153617 -0.0246867
0.422228 0.04 0.153855 -7.66615e-05 0.153855 -0.0262427
0.492599 0.04 0.154096 -8.00346e-05 0.154096 -0.0278105
0.562971 0.04 0.154353 -8.52663e-05 0.154354 -0.0293917
0.633342 0.04 0.154625 -9.12597e-05 0.154625 -0.030988
0.703713 0.04 0.154921 -9.9319e-05 0.154921 -0.0325997
0.774085 0.04 0.155238 -0.000108906 0.155238 -0.0342293
0.844456 0.04 0.155595 -0.000121372 0.155596 -0.0358778
0.914827 0.04 0.155985 -0.00013506 0.155985 -0.0375493
0.985199 0.04 0.156429 -0.000152072 0.156429 -0.039245
1.05557 0.04 0.156917 -0.00017101 0.156917 -0.0409703
1.12594 0.04 0.157482 -0.000194704 0.157482 -0.0427268
1.19631 0.04 0.158106 -0.00022101 0.158106 -0.0445225
1.26668 0.04 0.15884 -0.000253788 0.15884 -0.0463593
1.33706 0.04 0.159649 -0.000290712 0.15965 -0.0482489
1.40743 0.04 0.160621 -0.000337156 0.160621 -0.0501934
1.4778 0.04 0.161689 -0.00039106 0.16169 -0.0522109
1.54817 0.04 0.163008 -0.000459964 0.163008 -0.0543032
1.61854 0.04 0.164448 -0.00054575 0.164449 -0.0565008
1.68891 0.04 0.166319 -0.000660022 0.16632 -0.058804
1.75928 0.04 0.168343 -0.000828281 0.168345 -0.0612722
1.82965 0.04 0.171272 -0.00108618 0.171276 -0.0639039
1.90003 0.04 0.174425 -0.00166841 0.174433 -0.06683
1.9704 0.04 0.180456 -0.00335343 0.180487 -0.0699543
2.04077 0.0384003 0.179082 -0.00958139 0.179338 -0.0732108
2.11114 0.0279877 0.151379 -0.0176785 0.152408 -0.0747201
2.18151 0.00724739 0.101885 -0.0192292 0.103683 -0.0721971
2.25188 -0.0253676 0.0478091 -0.0106295 0.0489765 -0.0666316
2.32225 -0.0730079 0.0084036 0.00235291 0.00872678 -0.0602328
2.39263 -0.129693 -0.0093419 0.00984421 0.0135713 -0.055153
2.463 -0.186379 -0.0141453 0.0116937 0.018353 -0.0521376
2.53337 -0.243065 -0.0149818 0.0120567 0.0192307 -0.0502611
2.60374 -0.29975 -0.0148492 0.0117986 0.0189659 -0.0489276
2.67411 -0.356436 -0.0141839 0.0112394 0.0180971 -0.0480028
2.74448 -0.413121 -0.0134736 0.0106866 0.0171972 -0.0473069
2.81485 -0.469807 -0.0127793 0.0101752 0.0163354 -0.0467803
2.88522 -0.526493 -0.0121987 0.00975639 0.0156204 -0.0463585
2.9556 -0.583178 -0.01171 0.00937891 0.0150029 -0.046008
3.02597 -0.639864 -0.0112442 0.00894661 0.0143692 -0.0457014
3.09634 -0.696549 -0.0107059 0.00834872 0.0135763 -0.0454334
3.16671 -0.753235 -0.00983085 0.00737064 0.0122871 -0.0451834
3.23708 -0.809904 -0.00874631 0.00592255 0.0105629 -0.0450041
3.30745 -0.856648 -0.00819296 0.00444943 0.00932319 -0.0449342
3.37782 -0.888592 -0.00835479 0.00328232 0.00897643 -0.0449103
3.4482 -0.90877 -0.00890849 0.00234955 0.00921312 -0.0449026
3.51857 -0.918673 -0.00996861 0.00162688 0.0101005 -0.0449178
3.58894 -0.92 -0.0115814 0.00117877 0.0116412 -0.0449138
3.65931 -0.92 -0.0132097 0.000962989 0.0132448 -0.0448821
3.72968 -0.92 -0.0146364 0.000849571 0.014661 -0.0448473
3.80005 -0.92 -0.0159661 0.00078349 0.0159853 -0.0447978
3.87042 -0.92 -0.0172104 0.000742003 0.0172264 -0.044739
3.94079 -0.92 -0.0184012 0.000711923 0.018415 -0.0446696
4.01117 -0.92 -0.0195467 0.000688344 0.0195588 -0.0445905
4.08154 -0.92 -0.0206556 0.00066836 0.0206664 -0.0445014
4.15191 -0.92 -0.021732 0.000650715 0.0217417 -0.0444026
4.22228 -0.92 -0.0227793 0.000634581 0.0227881 -0.0442941
4.29265 -0.92 -0.0237995 0.000619509 0.0238076 -0.0441759
4.36302 -0.92 -0.0247944 0.000605203 0.0248018 -0.044048
4.43339 -0.92 -0.0257651 0.000591522 0.0257719 -0.0439105
4.50377 -0.92 -0.0267127 0.000578425 0.026719 -0.0437634
4.57414 -0.92 -0.0276385 0.000566002 0.0276443 -0.0436067
4.64451 -0.92 -0.0285438 0.000554443 0.0285492 -0.0434407
4.71488 -0.92 -0.0294304 0.00054407 0.0294354 -0.0432653
4.78525 -0.92 -0.0303006 0.000535297 0.0303054 -0.0430807
4.85562 -0.92 -0.0311576 0.000528653 0.0311621 -0.0428869
4.92599 -0.92 -0.0320051 0.000524694 0.0320094 -0.0426841
4.99636 -0.92 -0.0328478 0.00052401 0.0328519 -0.0424722
5.06674 -0.92 -0.033691 0.000527077 0.0336951 -0.0422512
5.13711 -0.92 -0.0345405 0.000534241 0.0345446 -0.042021
5.20748 -0.92 -0.0354023 0.000545451 0.0354065 -0.0417813
5.27785 -0.92 -0.0362814 0.000560216 0.0362857 -0.0415316
5.34822 -0.92 -0.0371814 0.000577144 0.0371859 -0.0412711
5.41859 -0.92 -0.0381027 0.000593919 0.0381073 -0.040999
5.48896 -0.92 -0.0390407 0.000606358 0.0390454 -0.0407141
5.55934 -0.92 -0.0399825 0.000608273 0.0399871 -0.040415
5.62971 -0.92 -0.0409057 0.000589288 0.0409099 -0.0401007
5.70008 -0.92 -0.0417664 0.000534717 0.0417699 -0.0397692
5.77045 -0.92 -0.0425086 0.000415345 0.0425106 -0.0394225
5.84082 -0.92 -0.0429782 0.000188222 0.0429786 -0.0390516
5.91119 -0.92 -0.0431788 -0.000256996 0.0431795 -0.0387009
5.98156 -0.92 -0.042418 -0.00100626 0.0424299 -0.0382701
6.05193 -0.92 -0.0418102 -0.0024357 0.0418811 -0.0380456
6.12231 -0.911 -0.0441259 -0.00374606 0.0442846 -0.0378569
6.19268 -0.902 -0.0472666 -0.00434035 0.0474654 -0.0375046
6.26305 -0.893 -0.0497411 -0.00481929 0.049974 -0.0371829
6.33342 -0.884 -0.0523397 -0.00521075 0.0525984 -0.0367653
6.40379 -0.875 -0.0547387 -0.00556794 0.0550212 -0.0363072
6.47416 -0.866 -0.0571286 -0.00591554 0.0574341 -0.0357845
6.54453 -0.857 -0.0594357 -0.00625 0.0597634 -0.035203
6.61491 -0.848 -0.0616867 -0.0065811 0.0620368 -0.0345553
6.68528 -0.839 -0.0638563 -0.006907 0.0642288 -0.0338391
6.75565 -0.83 -0.0659382 -0.00722997 0.0663334 -0.0330495
6.82602 -0.821 -0.067912 -0.00754866 0.0683302 -0.0321828
6.89639 -0.812 -0.0697605 -0.00786273 0.0702022 -0.0312346
6.96676 -0.803 -0.0714613 -0.00817045 0.0719269 -0.0302011
7.03713 -0.794 -0.0729919 -0.00847012 0.0734817 -0.0290785
7.1075 -0.785 -0.0743274 -0.00875931 0.0748417 -0.0278636
7.17788 -0.776 -0.0754423 -0.00903537 0.0759815 -0.0265538
7.24825 -0.767 -0.0763105 -0.00929518 0.0768746 -0.0251469
7.31862 -0.758 -0.0769059 -0.00953533 0.0774947 -0.023642
7.38899 -0.749 -0.0772025 -0.00975208 0.077816 -0.022039
7.45936 -0.74 -0.0771759 -0.00994149 0.0778135 -0.0203391
7.52973 -0.731 -0.0768026 -0.0100995 0.0774638 -0.0185446
7.6001 -0.722 -0.0760615 -0.0102219 0.0767453 -0.0166596
7.67048 -0.713 -0.0749339 -0.0103047 0.0756391 -0.0146895
7.74085 -0.704 -0.073404 -0.0103437 0.0741292 -0.0126414
7.81122 -0.695 -0.0714592 -0.0103352 0.0722027 -0.0105239
7.88159 -0.686 -0.0690904 -0.0102756 0.0698503 -0.00834747
7.95196 -0.677 -0.0662926 -0.0101613 0.0670669 -0.00612394
8.02233 -0.668 -0.0630649 -0.00998915 0.0638511 -0.0038668
8.0927 -0.659 -0.0594087 -0.00975538 0.0602043 -0.0015904
8.16307 -0.65 -0.055331 -0.00945741 0.0561334 0.00068914
8.23345 -0.641 -0.0508497 -0.00909593 0.0516568 0.00295398
8.30382 -0.632 -0.0459886 -0.00867105 0.0467989 0.00518615
8.37419 -0.623 -0.0407714 -0.00818291 0.0415844 0.00736805
8.44456 -0.614 -0.0352252 -0.00763165 0.0360425 0.00948169
8.51493 -0.605 -0.0293803 -0.0070206 0.0302074 0.0115099
8.5853 -0.596 -0.0232692 -0.00635535 0.0241215 0.0134359
8.65567 -0.587 -0.016926 -0.00564011 0.017841 0.0152443
8.72605 -0.578 -0.0103888 -0.0048749 0.0114757 0.01692
8.79642 -0.569 -0.00369358 -0.00406445 0.00549202 0.0184505
8.86679 -0.56 0.00311969 -0.00321414 0.00447919 0.0198237
8.93716 -0.551 0.0100161 -0.00233083 0.0102837 0.0210307
9.00753 -0.542 0.0169542 -0.0014191 0.0170134 0.0220627
9.0779 -0.533 0.0239039 -0.000486303 0.0239088 0.0229151
9.14827 -0.524 0.0308208 0.000463822 0.0308243 0.0235821
9.21864 -0.515 0.0376864 0.00142426 0.0377133 0.0240641
9.28902 -0.506 0.0444356 0.00238568 0.0444996 0.0243568
9.35939 -0.496999 0.0510274 0.00332409 0.0511355 0.0244737
9.42976 -0.487999 0.0574876 0.00424919 0.0576444 0.0244167
9.50013 -0.478999 0.0638898 0.00518112 0.0640995 0.0241772
9.5705 -0.469999 0.0701537 0.00611569 0.0704198 0.0237481
9.64087 -0.460999 0.0762689 0.00702852 0.0765921 0.0231469
9.71124 -0.451999 0.0821697 0.00791958 0.0825504 0.0223726
9.78162 -0.442999 0.0879287 0.00878142 0.0883662 0.0214407
9.85199 -0.433999 0.0934557 0.00961962 0.0939495 0.0203434
9.92236 -0.424999 0.0988758 0.0104278 0.0994242 0.0191024
9.99273 -0.415999 0.104034 0.0112066 0.104636 0.0177021
10.0631 -0.406999 0.109171 0.0119471 0.109823 0.0161731
10.1335 -0.397999 0.113994 0.0126534 0.114694 0.0144867
10.2038 -0.388999 0.11898 0.0133284 0.119724 0.0126879
10.2742 -0.379999 0.123553 0.0139481 0.124338 0.0107092
10.3446 -0.370999 0.128683 0.0145462 0.129503 0.00864181
10.415 -0.361999 0.133077 0.01494 0.133913 0.00633278
10.4853 -0.352999 0.139072 0.0152609 0.139907 0.00402433
10.5557 -0.343999 0.144186 0.0154785 0.145014 0.00153024
0 0.06 0.223811 -9.16366e-05 0.223811 -0.0175959
0.0703713 0.06 0.22293 -0.000300145 0.22293 -0.0183693
0.140743 0.06 0.223998 -0.000358702 0.223998 -0.0199934
0.211114 0.06 0.22477 -0.000240415 0.22477 -0.0216089
0.281485 0.06 0.225172 -0.000169566 0.225172 -0.0231438
0.351857 0.06 0.225507 -0.000156705 0.225507 -0.0246903
0.422228 0.06 0.225829 -0.000159004 0.225829 -0.0262457
0.492599 0.06 0.226152 -0.000165085 0.226152 -0.0278134
0.562971 0.06 0.226496 -0.000175305 0.226496 -0.0293945
0.633342 0.06 0.226857 -0.000187575 0.226857 -0.0309909
0.703713 0.06 0.227252 -0.000203625 0.227252 -0.0326028
0.774085 0.06 0.227674 -0.000223135 0.227674 -0.0342326
0.844456 0.06 0.228149 -0.000247924 0.228149 -0.0358813
0.914827 0.06 0.228664 -0.000275879 0.228664 -0.0375531
0.985199 0.06 0.229254 -0.000309794 0.229254 -0.0392491
1.05557 0.06 0.229897 -0.000348453 0.229898 -0.0409749
1.12594 0.06 0.230646 -0.00039552 0.230646 -0.0427318
1.19631 0.06 0.231466 -0.00044919 0.231466 -0.0445281
1.26668 0.06 0.232435 -0.000514038 0.232436 -0.0463655
1.33706 0.06 0.233496 -0.000589265 0.233497 -0.0482559
1.40743 0.06 0.234775 -0.000680369 0.234776 -0.0502011
1.4778 0.06 0.236167 -0.000789794 0.236169 -0.0522196
1.54817 0.06 0.237898 -0.000922973 0.237899 -0.0543124
1.61854 0.06 0.239758 -0.00109571 0.239761 -0.0565111
1.68891 0.06 0.242199 -0.00131103 0.242203 -0.0588136
1.75928 0.06 0.244771 -0.00164213 0.244776 -0.0612811
1.82965 0.06 0.24853 -0.00209998 0.248538 -0.063903
1.90003 0.06 0.252317 -0.00311136 0.252336 -0.0667909
1.9704 0.06 0.259281 -0.00520548 0.259333 -0.0697653
2.04077 0.0584336 0.258754 -0.0117028 0.259019 -0.0726469
2.11114 0.048238 0.227643 -0.0209704 0.228607 -0.0739515
2.18151 0.0279297 0.167028 -0.0248112 0.16886 -0.071672
2.25188 -0.00400573 0.0926323 -0.0170895 0.0941955 -0.0665654
2.32225 -0.0506536 0.0305302 -0.00142575 0.0305635 -0.0605501
2.39263 -0.106158 -0.0028076 0.00979194 0.0101865 -0.0555426
2.463 -0.161663 -0.0149084 0.0138244 0.0203316 -0.0524458
2.53337 -0.217167 -0.0185693 0.0152396 0.0240222 -0.0505123
2.60374 -0.272672 -0.0195976 0.0154662 0.0249654 -0.0491304
2.67411 -0.328177 -0.0193463 0.0150636 0.0245192 -0.0481651
2.74448 -0.383681 -0.018715 0.0145253 0.0236905 -0.0474398
2.81485 -0.439186 -0.0179461 0.0139643 0.022739 -0.0468907
2.88522 -0.494691 -0.0172333 0.0134753 0.0218762 -0.0464537
2.9556 -0.550195 -0.0166088 0.0130138 0.0211001 -0.0460939
3.02597 -0.6057 -0.0160219 0.0124642 0.0202992 -0.0457817
3.09634 -0.661204 -0.0153895 0.0116859 0.0193235 -0.0455121
3.16671 -0.716709 -0.0144067 0.0104516 0.0177986 -0.04526
3.23708 -0.772198 -0.0131674 0.00864248 0.0157503 -0.0450654
3.30745 -0.817968 -0.0125366 0.00673927 0.0142332 -0.044972
3.37782 -0.849246 -0.0128119 0.00516381 0.0138133 -0.0449283
3.4482 -0.869004 -0.0136486 0.00389524 0.0141935 -0.0449054
3.51857 -0.878701 -0.0151253 0.00293234 0.0154069 -0.0449083
3.58894 -0.88 -0.0172464 0.00232755 0.0174028 -0.0448974
3.65931 -0.88 -0.0194059 0.00199974 0.0195086 -0.0448645
3.72968 -0.88 -0.0213545 0.00179907 0.0214301 -0.04483
3.80005 -0.88 -0.0231874 0.00167131 0.0232476 -0.0447812
3.87042 -0.88 -0.0249117 0.00158422 0.0249621 -0.0447232
3.94079 -0.88 -0.0265622 0.0015192 0.0266056 -0.0446544
4.01117 -0.88 -0.0281483 0.00146704 0.0281865 -0.0445759
4.08154 -0.88 -0.0296813 0.00142258 0.0297154 -0.0444874
4.15191 -0.88 -0.0311668 0.00138315 0.0311975 -0.0443892
4.22228 -0.88 -0.0326095 0.00134709 0.0326373 -0.0442811
4.29265 -0.88 -0.0340124 0.00131345 0.0340377 -0.0441633
4.36302 -0.88 -0.0353779 0.00128159 0.0354011 -0.0440358
4.43339 -0.88 -0.0367079 0.00125123 0.0367292 -0.0438987
4.50377 -0.88 -0.0380043 0.00122229 0.0380239 -0.0437519
4.57414 -0.88 -0.0392688 0.00119497 0.039287 -0.0435956
4.64451 -0.88 -0.0405037 0.00116966 0.0405205 -0.0434298
4.71488 -0.88 -0.0417114 0.00114701 0.0417272 -0.0432546
4.78525 -0.88 -0.0428955 0.00112785 0.0429103 -0.0430702
4.85562 -0.88 -0.04406 0.00111319 0.044074 -0.0428765
4.92599 -0.88 -0.0452101 0.00110408 0.0452236 -0.0426737
4.99636 -0.88 -0.0463518 0.00110162 0.0463649 -0.0424618
5.06674 -0.88 -0.0474919 0.00110661 0.0475047 -0.0422408
5.13711 -0.88 -0.0486374 0.00111954 0.0486503 -0.0420105
5.20748 -0.88 -0.0497954 0.00114004 0.0498085 -0.0417706
5.27785 -0.88 -0.0509716 0.0011668 0.0509849 -0.0415209
5.34822 -0.88 -0.0521691 0.00119668 0.0521828 -0.0412605
5.41859 -0.88 -0.0533871 0.00122454 0.0534011 -0.0409888
5.48896 -0.88 -0.0546184 0.0012417 0.0546325 -0.0407047
5.55934 -0.88 -0.0558458 0.00123562 0.0558595 -0.0404072
5.62971 -0.88 -0.0570412 0.00118652 0.0570536 -0.0400952
5.70008 -0.88 -0.0581556 0.00106842 0.0581654 -0.0397672