Variables = x, y, u, v, umag, p
ZONE I= 101 J= 101 F=point
0.005 0.005 0 0 0 0
0.015 0.005 0 0 0 0
0.025 0.005 0 0 0 0
0.035 0.005 0 0 0 0
0.045 0.005 0 0 0 0
0.055 0.005 0 0 0 0
0.065 0.005 0 0 0 0
0.075 0.005 0 0 0 0
0.085 0.005 0 0 0 0
0.095 0.005 0 0 0 0
0.105 0.005 0 0 0 0
0.115 0.005 0 0 0 0
0.125 0.005 0 0 0 0
0.135 0.005 0 0 0 0
0.145 0.005 0 0 0 0
0.155 0.005 0 0 0 0
0.165 0.005 0 0 0 0
0.175 0.005 0 0 0 0
0.185 0.005 0 0 0 0
0.195 0.005 0 0 0 0
0.205 0.005 0 0 0 0
0.215 0.005 0 0 0 0
0.225 0.005 0 0 0 0
0.235 0.005 0 0 0 0
0.245 0.005 0 0 0 0
0.255 0.005 0 0 0 0
0.265 0.005 0 0 0 0
0.275 0.005 0 0 0 0
0.285 0.005 0 0 0 0
0.295 0.005 0 0 0 0
0.305 0.005 0 0 0 0
0.315 0.005 0 0 0 0
0.325 0.005 0 0 0 0
0.335 0.005 0 0 0 0
0.345 0.005 0 0 0 0
0.355 0.005 0 0 0 0
0.365 0.005 0 0 0 0
0.375 0.005 0 0 0 0
0.385 0.005 0 0 0 0
0.395 0.005 0 0 0 0
0.405 0.005 0 0 0 0
0.415 0.005 0 0 0 0
0.425 0.005 0 0 0 0
0.435 0.005 0 0 0 0
0.445 0.005 0 0 0 0
0.455 0.005 0 0 0 0
0.465 0.005 0 0 0 0
0.475 0.005 0 0 0 0
0.485 0.005 0 0 0 0
0.495 0.005 0 0 0 0
0.505 0.005 0 0 0 0
0.515 0.005 0 0 0 0
0.525 0.005 0 0 0 0
0.535 0.005 0 0 0 0
0.545 0.005 0 0 0 0
0.555 0.005 0 0 0 0
0.565 0.005 0 0 0 0
0.575 0.005 0 0 0 0
0.585 0.005 0 0 0 0
0.595 0.005 0 0 0 0
0.605 0.005 0 0 0 0
0.615 0.005 0 0 0 0
0.625 0.005 0 0 0 0
0.635 0.005 0 0 0 0
0.645 0.005 0 0 0 0
0.655 0.005 0 0 0 0
0.665 0.005 0 0 0 0
0.675 0.005 0 0 0 0
0.685 0.005 0 0 0 0
0.695 0.005 0 0 0 0
0.705 0.005 0 0 0 0
0.715 0.005 0 0 0 0
0.725 0.005 0 0 0 0
0.735 0.005 0 0 0 0
0.745 0.005 0 0 0 0
0.755 0.005 0 0 0 0
0.765 0.005 0 0 0 0
0.775 0.005 0 0 0 0
0.785 0.005 0 0 0 0
0.795 0.005 0 0 0 0
0.805 0.005 0 0 0 0
0.815 0.005 0 0 0 0
0.825 0.005 0 0 0 0
0.835 0.005 0 0 0 0
0.845 0.005 0 0 0 0
0.855 0.005 0 0 0 0
0.865 0.005 0 0 0 0
0.875 0.005 0 0 0 0
0.885 0.005 0 0 0 0
0.895 0.005 0 0 0 0
0.905 0.005 0 0 0 0
0.915 0.005 0 0 0 0
0.925 0.005 0 0 0 0
0.935 0.005 0 0 0 0
0.945 0.005 0 0 0 0
0.955 0.005 0 0 0 0
0.965 0.005 0 0 0 0
0.975 0.005 0 0 0 0
0.985 0.005 0 0 0 0
0.995 0.005 0 0 0 0
1.005 0.005 0 0 0 0
0.005 0.015 0 0 0 0
0.015 0.015 0 0 0 0
0.025 0.015 0 0 0 0
0.035 0.015 0 0 0 0
0.045 0.015 0 0 0 0
0.055 0.015 0 0 0 0
0.065 0.015 0 0 0 0
0.075 0.015 0 0 0 0
0.085 0.015 0 0 0 0
0.095 0.015 0 0 0 0
0.105 0.015 0 0 0 0
0.115 0.015 0 0 0 0
0.125 0.015 0 0 0 0
0.135 0.015 0 0 0 0
0.145 0.015 0 0 0 0
0.155 0.015 0 0 0 0
0.165 0.015 0 0 0 0
0.175 0.015 0 0 0 0
0.185 0.015 0 0 0 0
0.195 0.015 0 0 0 0
0.205 0.015 0 0 0 0
0.215 0.015 0 0 0 0
0.225 0.015 0 0 0 0
0.235 0.015 0 0 0 0
0.245 0.015 0 0 0 0
0.255 0.015 0 0 0 0
0.265 0.015 0 0 0 0
0.275 0.015 0 0 0 0
0.285 0.015 0 0 0 0
0.295 0.015 0 0 0 0
0.305 0.015 0 0 0 0
0.315 0.015 0 0 0 0
0.325 0.015 0 0 0 0
0.335 0.015 0 0 0 0
0.345 0.015 0 0 0 0
0.355 0.015 0 0 0 0
0.365 0.015 0 0 0 0
0.375 0.015 0 0 0 0
0.385 0.015 0 0 0 0
0.395 0.015 0 0 0 0
0.405 0.015 0 0 0 0
0.415 0.015 0 0 0 0
0.425 0.015 0 0 0 0
0.435 0.015 0 0 0 0
0.445 0.015 0 0 0 0
0.455 0.015 0 0 0 0
0.465 0.015 0 0 0 0
0.475 0.015 0 0 0 0
0.485 0.015 0 0 0 0
0.495 0.015 0 0 0 0
0.505 0.015 0 0 0 0
0.515 0.015 0 0 0 0
0.525 0.015 0 0 0 0
0.535 0.015 0 0 0 0
0.545 0.015 0 0 0 0
0.555 0.015 0 0 0 0
0.565 0.015 0 0 0 0
0.575 0.015 0 0 0 0
0.585 0.015 0 0 0 0
0.595 0.015 0 0 0 0
0.605 0.015 0 0 0 0
0.615 0.015 0 0 0 0
0.625 0.015 0 0 0 0
0.635 0.015 0 0 0 0
0.645 0.015 0 0 0 0
0.655 0.015 0 0 0 0
0.665 0.015 0 0 0 0
0.675 0.015 0 0 0 0
0.685 0.015 0 0 0 0
0.695 0.015 0 0 0 0
0.705 0.015 0 0 0 0
0.715 0.015 0 0 0 0
0.725 0.015 0 0 0 0
0.735 0.015 0 0 0 0
0.745 0.015 0 0 0 0
0.755 0.015 0 0 0 0
0.765 0.015 0 0 0 0
0.775 0.015 0 0 0 0
0.785 0.015 0 0 0 0
0.795 0.015 0 0 0 0
0.805 0.015 0 0 0 0
0.815 0.015 0 0 0 0
0.825 0.015 0 0 0 0
0.835 0.015 0 0 0 0
0.845 0.015 0 0 0 0
0.855 0.015 0 0 0 0
0.865 0.015 0 0 0 0
0.875 0.015 0 0 0 0
0.885 0.015 0 0 0 0
0.895 0.015 0 0 0 0
0.905 0.015 0 0 0 0
0.915 0.015 0 0 0 0
0.925 0.015 0 0 0 0
0.935 0.015 0 0 0 0
0.945 0.015 0 0 0 0
0.955 0.015 0 0 0 0
0.965 0.015 0 0 0 0
0.975 0.015 0 0 0 0
0.985 0.015 0 0 0 0
0.995 0.015 0 0 0 0
1.005 0.015 0 0 0 0
0.005 0.025 0 0 0 0
0.015 0.025 0 0 0 0
0.025 0.025 0 0 0 0
0.035 0.025 0 0 0 0
0.045 0.025 0 0 0 0
0.055 0.025 0 0 0 0
0.065 0.025 0 0 0 0
0.075 0.025 0 0 0 0
0.085 0.025 0 0 0 0
0.095 0.025 0 0 0 0
0.105 0.025 0 0 0 0
0.115 0.025 0 0 0 0
0.125 0.025 0 0 0 0
0.135 0.025 0 0 0 0
0.145 0.025 0 0 0 0
0.155 0.025 0 0 0 0
0.165 0.025 0 0 0 0
0.175 0.025 0 0 0 0
0.185 0.025 0 0 0 0
0.195 0.025 0 0 0 0
0.205 0.025 0 0 0 0
0.215 0.025 0 0 0 0
0.225 0.025 0 0 0 0
0.235 0.025 0 0 0 0
0.245 0.025 0 0 0 0
0.255 0.025 0 0 0 0
0.265 0.025 0 0 0 0
0.275 0.025 0 0 0 0
0.285 0.025 0 0 0 0
0.295 0.025 0 0 0 0
0.305 0.025 0 0 0 0
0.315 0.025 0 0 0 0
0.325 0.025 0 0 0 0
0.335 0.025 0 0 0 0
0.345 0.025 0 0 0 0
0.355 0.025 0 0 0 0
0.365 0.025 0 0 0 0
0.375 0.025 0 0 0 0
0.385 0.025 0 0 0 0
0.395 0.025 0 0 0 0
0.405 0.025 0 0 0 0
0.415 0.025 0 0 0 0
0.425 0.025 0 0 0 0
0.435 0.025 0 0 0 0
0.445 0.025 0 0 0 0
0.455 0.025 0 0 0 0
0.465 0.025 0 0 0 0
0.475 0.025 0 0 0 0
0.485 0.025 0 0 0 0
0.495 0.025 0 0 0 0
0.505 0.025 0 0 0 0
0.515 0.025 0 0 0 0
0.525 0.025 0 0 0 0
0.535 0.025 0 0 0 0
0.545 0.025 0 0 0 0
0.555 0.025 0 0 0 0
0.565 0.025 0 0 0 0
0.575 0.025 0 0 0 0
0.585 0.025 0 0 0 0
0.595 0.025 0 0 0 0
0.605 0.025 0 0 0 0
0.615 0.025 0 0 0 0
0.625 0.025 0 0 0 0
0.635 0.025 0 0 0 0
0.645 0.025 0 0 0 0
0.655 0.025 0 0 0 0
0.665 0.025 0 0 0 0
0.675 0.025 0 0 0 0
0.685 0.025 0 0 0 0
0.695 0.025 0 0 0 0
0.705 0.025 0 0 0 0
0.715 0.025 0 0 0 0
0.725 0.025 0 0 0 0
0.735 0.025 0 0 0 0
0.745 0.025 0 0 0 0
0.755 0.025 0 0 0 0
0.765 0.025 0 0 0 0
0.775 0.025 0 0 0 0
0.785 0.025 0 0 0 0
0.795 0.025 0 0 0 0
0.805 0.025 0 0 0 0
0.815 0.025 0 0 0 0
0.825 0.025 0 0 0 0
0.835 0.025 0 0 0 0
0.845 0.025 0 0 0 0
0.855 0.025 0 0 0 0
0.865 0.025 0 0 0 0
0.875 0.025 0 0 0 0
0.885 0.025 0 0 0 0
0.895 0.025 0 0 0 0
0.905 0.025 0 0 0 0
0.915 0.025 0 0 0 0
0.925 0.025 0 0 0 0
0.935 0.025 0 0 0 0
0.945 0.025 0 0 0 0
0.955 0.025 0 0 0 0
0.965 0.025 0 0 0 0
0.975 0.025 0 0 0 0
0.985 0.025 0 0 0 0
0.995 0.025 0 0 0 0
1.005 0.025 0 0 0 0
0.005 0.035 0 0 0 0
0.015 0.035 0 0 0 0
0.025 0.035 0 0 0 0
0.035 0.035 0 0 0 0
0.045 0.035 0 0 0 0
0.055 0.035 0 0 0 0
0.065 0.035 0 0 0 0
0.075 0.035 0 0 0 0
0.085 0.035 0 0 0 0
0.095 0.035 0 0 0 0
0.105 0.035 0 0 0 0
0.115 0.035 0 0 0 0
0.125 0.035 0 0 0 0
0.135 0.035 0 0 0 0
0.145 0.035 0 0 0 0
0.155 0.035 0 0 0 0
0.165 0.035 0 0 0 0
0.175 0.035 0 0 0 0
0.185 0.035 0 0 0 0
0.195 0.035 0 0 0 0
0.205 0.035 0 0 0 0
0.215 0.035 0 0 0 0
0.225 0.035 0 0 0 0
0.235 0.035 0 0 0 0
0.245 0.035 0 0 0 0
0.255 0.035 0 0 0 0
0.265 0.035 0 0 0 0
0.275 0.035 0 0 0 0
0.285 0.035 0 0 0 0
0.295 0.035 0 0 0 0
0.305 0.035 0 0 0 0
0.315 0.035 0 0 0 0
0.325 0.035 0 0 0 0
0.335 0.035 0 0 0 0
0.345 0.035 0 0 0 0
0.355 0.035 0 0 0 0
0.365 0.035 0 0 0 0
0.375 0.035 0 0 0 0
0.385 0.035 0 0 0 0
0.395 0.035 0 0 0 0
0.405 0.035 0 0 0 0
0.415 0.035 0 0 0 0
0.425 0.035 0 0 0 0
0.435 0.035 0 0 0 0
0.445 0.035 0 0 0 0
0.455 0.035 0 0 0 0
0.465 0.035 0 0 0 0
0.475 0.035 0 0 0 0
0.485 0.035 0 0 0 0
0.495 0.035 0 0 0 0
0.505 0.035 0 0 0 0
0.515 0.035 0 0 0 0
0.525 0.035 0 0 0 0
0.535 0.035 0 0 0 0
0.545 0.035 0 0 0 0
0.555 0.035 0 0 0 0
0.565 0.035 0 0 0 0
0.575 0.035 0 0 0 0
0.585 0.035 0 0 0 0
0.595 0.035 0 0 0 0
0.605 0.035 0 0 0 0
0.615 0.035 0 0 0 0
0.625 0.035 0 0 0 0
0.635 0.035 0 0 0 0
0.645 0.035 0 0 0 0
0.655 0.035 0 0 0 0
0.665 0.035 0 0 0 0
0.675 0.035 0 0 0 0
0.685 0.035 0 0 0 0
0.695 0.035 0 0 0 0
0.705 0.035 0 0 0 0
0.715 0.035 0 0 0 0
0.725 0.035 0 0 0 0
0.735 0.035 0 0 0 0
0.745 0.035 0 0 0 0
0.755 0.035 0 0 0 0
0.765 0.035 0 0 0 0
0.775 0.035 0 0 0 0
0.785 0.035 0 0 0 0
0.795 0.035 0 0 0 0
0.805 0.035 0 0 0 0
0.815 0.035 0 0 0 0
0.825 0.035 0 0 0 0
0.835 0.035 0 0 0 0
0.845 0.035 0 0 0 0
0.855 0.035 0 0 0 0
0.865 0.035 0 0 0 0
0.875 0.035 0 0 0 0
0.885 0.035 0 0 0 0
0.895 0.035 0 0 0 0
0.905 0.035 0 0 0 0
0.915 0.035 0 0 0 0
0.925 0.035 0 0 0 0
0.935 0.035 0 0 0 0
0.945 0.035 0 0 0 0
0.955 0.035 0 0 0 0
0.965 0.035 0 0 0 0
0.975 0.035 0 0 0 0
0.985 0.035 0 0 0 0
0.995 0.035 0 0 0 0
1.005 0.035 0 0 0 0
0.005 0.045 0 0 0 0
0.015 0.045 0 0 0 0
0.025 0.045 0 0 0 0
0.035 0.045 0 0 0 0
0.045 0.045 0 0 0 0
0.055 0.045 0 0 0 0
0.065 0.045 0 0 0 0
0.075 0.045 0 0 0 0
0.085 0.045 0 0 0 0
0.095 0.045 0 0 0 0
0.105 0.045 0 0 0 0
0.115 0.045 0 0 0 0
0.125 0.045 0 0 0 0
0.135 0.045 0 0 0 0
0.145 0.045 0 0 0 0
0.155 0.045 0 0 0 0
0.165 0.045 0 0 0 0
0.175 0.045 0 0 0 0
0.185 0.045 0 0 0 0
0.195 0.045 0 0 0 0
0.205 0.045 0 0 0 0
0.215 0.045 0 0 0 0
0.225 0.045 0 0 0 0
0.235 0.045 0 0 0 0
0.245 0.045 0 0 0 0
0.255 0.045 0 0 0 0
0.265 0.045 0 0 0 0
0.275 0.045 0 0 0 0
0.285 0.045 0 0 0 0
0.295 0.045 0 0 0 0
0.305 0.045 0 0 0 0
0.315 0.045 0 0 0 0
0.325 0.045 0 0 0 0
0.335 0.045 0 0 0 0
0.345 0.045 0 0 0 0
0.355 0.045 0 0 0 0
0.365 0.045 0 0 0 0
0.375 0.045 0 0 0 0
0.385 0.045 0 0 0 0
0.395 0.045 0 0 0 0
0.405 0.045 0 0 0 0
0.415 0.045 0 0 0 0
0.425 0.045 0 0 0 0
0.435 0.045 0 0 0 0
0.445 0.045 0 0 0 0
0.455 0.045 0 0 0 0
0.465 0.045 0 0 0 0
0.475 0.045 0 0 0 0
0.485 0.045 0 0 0 0
0.495 0.045 0 0 0 0
0.505 0.045 0 0 0 0
0.515 0.045 0 0 0 0
0.525 0.045 0 0 0 0
0.535 0.045 0 0 0 0
0.545 0.045 0 0 0 0
0.555 0.045 0 0 0 0
0.565 0.045 0 0 0 0
0.575 0.045 0 0 0 0
0.585 0.045 0 0 0 0
0.595 0.045 0 0 0 0
0.605 0.045 0 0 0 0
0.615 0.045 0 0 0 0
0.625 0.045 0 0 0 0
0.635 0.045 0 0 0 0
0.645 0.045 0 0 0 0
0.655 0.045 0 0 0 0
0.665 0.045 0 0 0 0
0.675 0.045 0 0 0 0
0.685 0.045 0 0 0 0
0.695 0.045 0 0 0 0
0.705 0.045 0 0 0 0
0.715 0.045 0 0 0 0
0.725 0.045 0 0 0 0
0.735 0.045 0 0 0 0
0.745 0.045 0 0 0 0
0.755 0.045 0 0 0 0
0.765 0.045 0 0 0 0
0.775 0.045 0 0 0 0
0.785 0.045 0 0 0 0
0.795 0.045 0 0 0 0
0.805 0.045 0 0 0 0
0.815 0.045 0 0 0 0
0.825 0.045 0 0 0 0
0.835 0.045 0 0 0 0
0.845 0.045 0 0 0 0
0.855 0.045 0 0 0 0
0.865 0.045 0 0 0 0
0.875 0.045 0 0 0 0
0.885 0.045 0 0 0 0
0.895 0.045 0 0 0 0
0.905 0.045 0 0 0 0
0.915 0.045 0 0 0 0
0.925 0.045 0 0 0 0
0.935 0.045 0 0 0 0
0.945 0.045 0 0 0 0
0.955 0.045 0 0 0 0
0.965 0.045 0 0 0 0
0.975 0.045 0 0 0 0
0.985 0.045 0 0 0 0
0.995 0.045 0 0 0 0
1.005 0.045 0 0 0 0
0.005 0.055 0 0 0 0
0.015 0.055 0 0 0 0
0.025 0.055 0 0 0 0
0.035 0.055 0 0 0 0
0.045 0.055 0 0 0 0
0.055 0.055 0 0 0 0
0.065 0.055 0 0 0 0
0.075 0.055 0 0 0 0
0.085 0.055 0 0 0 0
0.095 0.055 0 0 0 0
0.105 0.055 0 0 0 0
0.115 0.055 0 0 0 0
0.125 0.055 0 0 0 0
0.135 0.055 0 0 0 0
0.145 0.055 0 0 0 0
0.155 0.055 0 0 0 0
0.165 0.055 0 0 0 0
0.175 0.055 0 0 0 0
0.185 0.055 0 0 0 0
0.195 0.055 0 0 0 0
0.205 0.055 0 0 0 0
0.215 0.055 0 0 0 0
0.225 0.055 0 0 0 0
0.235 0.055 0 0 0 0
0.245 0.055 0 0 0 0
0.255 0.055 0 0 0 0
0.265 0.055 0 0 0 0
0.275 0.055 0 0 0 0
0.285 0.055 0 0 0 0
0.295 0.055 0 0 0 0
0.305 0.055 0 0 0 0
0.315 0.055 0 0 0 0
0.325 0.055 0 0 0 0
0.335 0.055 0 0 0 0
0.345 0.055 0 0 0 0
0.355 0.055 0 0 0 0
0.365 0.055 0 0 0 0
0.375 0.055 0 0 0 0
0.385 0.055 0 0 0 0
0.395 0.055 0 0 0 0
0.405 0.055 0 0 0 0
0.415 0.055 0 0 0 0
0.425 0.055 0 0 0 0
0.435 0.055 0 0 0 0
0.445 0.055 0 0 0 0
0.455 0.055 0 0 0 0
0.465 0.055 0 0 0 0
0.475 0.055 0 0 0 0
0.485 0.055 0 0 0 0
0.495 0.055 0 0 0 0
0.505 0.055 0 0 0 0
0.515 0.055 0 0 0 0
0.525 0.055 0 0 0 0
0.535 0.055 0 0 0 0
0.545 0.055 0 0 0 0
0.555 0.055 0 0 0 0
0.565 0.055 0 0 0 0
0.575 0.055 0 0 0 0
0.585 0.055 0 0 0 0
0.595 0.055 0 0 0 0
0.605 0.055 0 0 0 0
0.615 0.055 0 0 0 0
0.625 0.055 0 0 0 0
0.635 0.055 0 0 0 0
0.645 0.055 0 0 0 0
0.655 0.055 0 0 0 0
0.665 0.055 0 0 0 0
0.675 0.055 0 0 0 0
0.685 0.055 0 0 0 0
0.695 0.055 0 0 0 0
0.705 0.055 0 0 0 0
0.715 0.055 0 0 0 0
0.725 0.055 0 0 0 0
0.735 0.055 0 0 0 0
0.745 0.055 0 0 0 0
0.755 0.055 0 0 0 0
0.765 0.055 0 0 0 0
0.775 0.055 0 0 0 0
0.785 0.055 0 0 0 0
0.795 0.055 0 0 0 0
0.805 0.055 0 0 0 0
0.815 0.055 0 0 0 0
0.825 0.055 0 0 0 0
0.835 0.055 0 0 0 0
0.845 0.055 0 0 0 0
0.855 0.055 0 0 0 0
0.865 0.055 0 0 0 0
0.875 0.055 0 0 0 0
0.885 0.055 0 0 0 0
0.895 0.055 0 0 0 0
0.905 0.055 0 0 0 0
0.915 0.055 0 0 0 0
0.925 0.055 0 0 0 0
0.935 0.055 0 0 0 0
0.945 0.055 0 0 0 0
0.955 0.055 0 0 0 0
0.965 0.055 0 0 0 0
0.975 0.055 0 0 0 0
0.985 0.055 0 0 0 0
0.995 0.055 0 0 0 0
1.005 0.055 0 0 0 0
0.005 0.065 0 0 0 0
0.015 0.065 0 0 0 0
0.025 0.065 0 0 0 0
0.035 0.065 0 0 0 0
0.045 0.065 0 0 0 0
0.055 0.065 0 0 0 0
0.065 0.065 0 0 0 0
0.075 0.065 0 0 0 0
0.085 0.065 0 0 0 0
0.095 0.065 0 0 0 0
0.105 0.065 0 0 0 0
0.115 0.065 0 0 0 0
0.125 0.065 0 0 0 0
0.135 0.065 0 0 0 0
0.145 0.065 0 0 0 0
0.155 0.065 0 0 0 0
0.165 0.065 0 0 0 0
0.175 0.065 0 0 0 0
0.185 0.065 0 0 0 0
0.195 0.065 0 0 0 0
0.205 0.065 0 0 0 0
0.215 0.065 0 0 0 0
0.225 0.065 0 0 0 0
0.235 0.065 0 0 0 0
0.245 0.065 0 0 0 0
0.255 0.065 0 0 0 0
0.265 0.065 0 0 0 0
0.275 0.065 0 0 0 0
0.285 0.065 0 0 0 0
0.295 0.065 0 0 0 0
0.305 0.065 0 0 0 0
0.315 0.065 0 0 0 0
0.325 0.065 0 0 0 0
0.335 0.065 0 0 0 0
0.345 0.065 0 0 0 0
0.355 0.065 0 0 0 0
0.365 0.065 0 0 0 0
0.375 0.065 0 0 0 0
0.385 0.065 0 0 0 0
0.395 0.065 0 0 0 0
0.405 0.065 0 0 0 0
0.415 0.065 0 0 0 0
0.425 0.065 0 0 0 0
0.435 0.065 0 0 0 0
0.445 0.065 0 0 0 0
0.455 0.065 0 0 0 0
0.465 0.065 0 0 0 0
0.475 0.065 0 0 0 0
0.485 0.065 0 0 0 0
0.495 0.065 0 0 0 0
0.505 0.065 0 0 0 0
0.515 0.065 0 0 0 0
0.525 0.065 0 0 0 0
0.535 0.065 0 0 0 0
0.545 0.065 0 0 0 0
0.555 0.065 0 0 0 0
0.565 0.065 0 0 0 0
0.575 0.065 0 0 0 0
0.585 0.065 0 0 0 0
0.595 0.065 0 0 0 0
0.605 0.065 0 0 0 0
0.615 0.065 0 0 0 0
0.625 0.065 0 0 0 0
0.635 0.065 0 0 0 0
0.645 0.065 0 0 0 0
0.655 0.065 0 0 0 0
0.665 0.065 0 0 0 0
0.675 0.065 0 0 0 0
0.685 0.065 0 0 0 0
0.695 0.065 0 0 0 0
0.705 0.065 0 0 0 0
0.715 0.065 0 0 0 0
0.725 0.065 0 0 0 0
0.735 0.065 0 0 0 0
0.745 0.065 0 0 0 0
0.755 0.065 0 0 0 0
0.765 0.065 0 0 0 0
0.775 0.065 0 0 0 0
0.785 0.065 0 0 0 0
0.795 0.065 0 0 0 0
0.805 0.065 0 0 0 0
0.815 0.065 0 0 0 0
0.825 0.065 0 0 0 0
0.835 0.065 0 0 0 0
0.845 0.065 0 0 0 0
0.855 0.065 0 0 0 0
0.865 0.065 0 0 0 0
0.875 0.065 0 0 0 0
0.885 0.065 0 0 0 0
0.895 0.065 0 0 0 0
0.905 0.065 0 0 0 0
0.915 0.065 0 0 0 0
0.925 0.065 0 0 0 0
0.935 0.065 0 0 0 0
0.945 0.065 0 0 0 0
0.955 0.065 0 0 0 0
0.965 0.065 0 0 0 0
0.975 0.065 0 0 0 0
0.985 0.065 0 0 0 0
0.995 0.065 0 0 0 0
1.005 0.065 0 0 0 0
0.005 0.075 0 0 0 0
0.015 0.075 0 0 0 0
0.025 0.075 0 0 0 0
0.035 0.075 0 0 0 0
0.045 0.075 0 0 0 0
0.055 0.075 0 0 0 0
0.065 0.075 0 0 0 0
0.075 0.075 0 0 0 0
0.085 0.075 0 0 0 0
0.095 0.075 0 0 0 0
0.105 0.075 0 0 0 0
0.115 0.075 0 0 0 0
0.125 0.075 0 0 0 0
0.135 0.075 0 0 0 0
0.145 0.075 0 0 0 0
0.155 0.075 0 0 0 0
0.165 0.075 0 0 0 0
0.175 0.075 0 0 0 0
0.185 0.075 0 0 0 0
0.195 0.075 0 0 0 0
0.205 0.075 0 0 0 0
0.215 0.075 0 0 0 0
0.225 0.075 0 0 0 0
0.235 0.075 0 0 0 0
0.245 0.075 0 0 0 0
0.255 0.075 0 0 0 0
0.265 0.075 0 0 0 0
0.275 0.075 0 0 0 0
0.285 0.075 0 0 0 0
0.295 0.075 0 0 0 0
0.305 0.075 0 0 0 0
0.315 0.075 0 0 0 0
0.325 0.075 0 0 0 0
0.335 0.075 0 0 0 0
0.345 0.075 0 0 0 0
0.355 0.075 0 0 0 0
0.365 0.075 0 0 0 0
0.375 0.075 0 0 0 0
0.385 0.075 0 0 0 0
0.395 0.075 0 0 0 0
0.405 0.075 0 0 0 0
0.415 0.075 0 0 0 0
0.425 0.075 0 0 0 0
0.435 0.075 0 0 0 0
0.445 0.075 0 0 0 0
0.455 0.075 0 0 0 0
0.465 0.075 0 0 0 0
0.475 0.075 0 0 0 0
0.485 0.075 0 0 0 0
0.495 0.075 0 0 0 0
0.505 0.075 0 0 0 0
0.515 0.075 0 0 0 0
0.525 0.075 0 0 0 0
0.535 0.075 0 0 0 0
0.545 0.075 0 0 0 0
0.555 0.075 0 0 0 0
0.565 0.075 0 0 0 0
0.575 0.075 0 0 0 0
0.585 0.075 0 0 0 0
0.595 0.075 0 0 0 0
0.605 0.075 0 0 0 0
0.615 0.075 0 0 0 0
0.625 0.075 0 0 0 0
0.635 0.075 0 0 0 0
0.645 0.075 0 0 0 0
0.655 0.075 0 0 0 0
0.665 0.075 0 0 0 0
0.675 0.075 0 0 0 0
0.685 0.075 0 0 0 0
0.695 0.075 0 0 0 0
0.705 0.075 0 0 0 0
0.715 0.075 0 0 0 0
0.725 0.075 0 0 0 0
0.735 0.075 0 0 0 0
0.745 0.075 0 0 0 0
0.755 0.075 0 0 0 0
0.765 0.075 0 0 0 0
0.775 0.075 0 0 0 0
0.785 0.075 0 0 0 0
0.795 0.075 0 0 0 0
0.805 0.075 0 0 0 0
0.815 0.075 0 0 0 0
0.825 0.075 0 0 0 0
0.835 0.075 0 0 0 0
0.845 0.075 0 0 0 0
0.855 0.075 0 0 0 0
0.865 0.075 0 0 0 0
0.875 0.075 0 0 0 0
0.885 0.075 0 0 0 0
0.895 0.075 0 0 0 0
0.905 0.075 0 0 0 0
0.915 0.075 0 0 0 0
0.925 0.075 0 0 0 0
0.935 0.075 0 0 0 0
0.945 0.075 0 0 0 0
0.955 0.075 0 0 0 0
0.965 0.075 0 0 0 0
0.975 0.075 0 0 0 0
0.985 0.075 0 0 0 0
0.995 0.075 0 0 0 0
1.005 0.075 0 0 0 0
0.005 0.085 0 0 0 0
0.015 0.085 0 0 0 0
0.025 0.085 0 0 0 0
0.035 0.085 0 0 0 0
0.045 0.085 0 0 0 0
0.055 0.085 0 0 0 0
0.065 0.085 0 0 0 0
0.075 0.085 0 0 0 0
0.085 0.085 0 0 0 0
0.095 0.085 0 0 0 0
0.105 0.085 0 0 0 0
0.115 0.085 0 0 0 0
0.125 0.085 0 0 0 0
0.135 0.085 0 0 0 0
0.145 0.085 0 0 0 0
0.155 0.085 0 0 0 0
0.165 0.085 0 0 0 0
0.175 0.085 0 0 0 0
0.185 0.085 0 0 0 0
0.195 0.085 0 0 0 0
0.205 0.085 0 0 0 0
0.215 0.085 0 0 0 0
0.225 0.085 0 0 0 0
0.235 0.085 0 0 0 0
0.245 0.085 0 0 0 0
0.255 0.085 0 0 0 0
0.265 0.085 0 0 0 0
0.275 0.085 0 0 0 0
0.285 0.085 0 0 0 0
0.295 0.085 0 0 0 0
0.305 0.085 0 0 0 0
0.315 0.085 0 0 0 0
0.325 0.085 0 0 0 0
0.335 0.085 0 0 0 0
0.345 0.085 0 0 0 0
0.355 0.085 0 0 0 0
0.365 0.085 0 0 0 0
0.375 0.085 0 0 0 0
0.385 0.085 0 0 0 0
0.395 0.085 0 0 0 0
0.405 0.085 0 0 0 0
0.415 0.085 0 0 0 0
0.425 0.085 0 0 0 0
0.435 0.085 0 0 0 0
0.445 0.085 0 0 0 0
0.455 0.085 0 0 0 0
0.465 0.085 0 0 0 0
0.475 0.085 0 0 0 0
0.485 0.085 0 0 0 0
0.495 0.085 0 0 0 0
0.505 0.085 0 0 0 0
0.515 0.085 0 0 0 0
0.525 0.085 0 0 0 0
0.535 0.085 0 0 0 0
0.545 0.085 0 0 0 0
0.555 0.085 0 0 0 0
0.565 0.085 0 0 0 0
0.575 0.085 0 0 0 0
0.585 0.085 0 0 0 0
0.595 0.085 0 0 0 0
0.605 0.085 0 0 0 0
0.615 0.085 0 0 0 0
0.625 0.085 0 0 0 0
0.635 0.085 0 0 0 0
0.645 0.085 0 0 0 0
0.655 0.085 0 0 0 0
0.665 0.085 0 0 0 0
0.675 0.085 0 0 0 0
0.685 0.085 0 0 0 0
0.695 0.085 0 0 0 0
0.705 0.085 0 0 0 0
0.715 0.085 0 0 0 0
0.725 0.085 0 0 0 0
0.735 0.085 0 0 0 0
0.745 0.085 0 0 0 0
0.755 0.085 0 0 0 0
0.765 0.085 0 0 0 0
0.775 0.085 0 0 0 0
0.785 0.085 0 0 0 0
0.795 0.085 0 0 0 0
0.805 0.085 0 0 0 0
0.815 0.085 0 0 0 0
0.825 0.085 0 0 0 0
0.835 0.085 0 0 0 0
0.845 0.085 0 0 0 0
0.855 0.085 0 0 0 0
0.865 0.085 0 0 0 0
0.875 0.085 0 0 0 0
0.885 0.085 0 0 0 0
0.895 0.085 0 0 0 0
0.905 0.085 0 0 0 0
0.915 0.085 0 0 0 0
0.925 0.085 0 0 0 0
0.935 0.085 0 0 0 0
0.945 0.085 0 0 0 0
0.955 0.085 0 0 0 0
0.965 0.085 0 0 0 0
0.975 0.085 0 0 0 0
0.985 0.085 0 0 0 0
0.995 0.085 0 0 0 0
1.005 0.085 0 0 0 0
0.005 0.095 0 0 0 0
0.015 0.095 0 0 0 0
0.025 0.095 0 0 0 0
0.035 0.095 0 0 0 0
0.045 0.095 0 0 0 0
0.055 0.095 0 0 0 0
0.065 0.095 0 0 0 0
0.075 0.095 0 0 0 0
0.085 0.095 0 0 0 0
0.095 0.095 0 0 0 0
0.105 0.095 0 0 0 0
0.115 0.095 0 0 0 0
0.125 0.095 0 0 0 0
0.135 0.095 0 0 0 0
0.145 0.095 0 0 0 0
0.155 0.095 0 0 0 0
0.165 0.095 0 0 0 0
0.175 0.095 0 0 0 0
0.185 0.095 0 0 0 0
0.195 0.095 0 0 0 0
0.205 0.095 0 0 0 0
0.215 0.095 0 0 0 0
0.225 0.095 0 0 0 0
0.235 0.095 0 0 0 0
0.245 0.095 0 0 0 0
0.255 0.095 0 0 0 0
0.265 0.095 0 0 0 0
0.275 0.095 0 0 0 0
0.285 0.095 0 0 0 0
0.295 0.095 0 0 0 0
0.305 0.095 0 0 0 0
0.315 0.095 0 0 0 0
0.325 0.095 0 0 0 0
0.335 0.095 0 0 0 0
0.345 0.095 0 0 0 0
0.355 0.095 0 0 0 0
0.365 0.095 0 0 0 0
0.375 0.095 0 0 0 0
0.385 0.095 0 0 0 0
0.395 0.095 0 0 0 0
0.405 0.095 0 0 0 0
0.415 0.095 0 0 0 0
0.425 0.095 0 0 0 0
0.435 0.095 0 0 0 0
0.445 0.095 0 0 0 0
0.455 0.095 0 0 0 0
0.465 0.095 0 0 0 0
0.475 0.095 0 0 0 0
0.485 0.095 0 0 0 0
0.495 0.095 0 0 0 0
0.505 0.095 0 0 0 0
0.515 0.095 0 0 0 0
0.525 0.095 0 0 0 0
0.535 0.095 0 0 0 0
0.545 0.095 0 0 0 0
0.555 0.095 0 0 0 0
0.565 0.095 0 0 0 0
0.575 0.095 0 0 0 0
0.585 0.095 0 0 0 0
0.595 0.095 0 0 0 0
0.605 0.095 0 0 0 0
0.615 0.095 0 0 0 0
0.625 0.095 0 0 0 0
0.635 0.095 0 0 0 0
0.645 0.095 0 0 0 0
0.655 0.095 0 0 0 0
0.665 0.095 0 0 0 0
0.675 0.095 0 0 0 0
0.685 0.095 0 0 0 0
0.695 0.095 0 0 0 0
0.705 0.095 0 0 0 0
0.715 0.095 0 0 0 0
0.725 0.095 0 0 0 0
0.735 0.095 0 0 0 0
0.745 0.095 0 0 0 0
0.755 0.095 0 0 0 0
0.765 0.095 0 0 0 0
0.775 0.095 0 0 0 0
0.785 0.095 0 0 0 0
0.795 0.095 0 0 0 0
0.805 0.095 0 0 0 0
0.815 0.095 0 0 0 0
0.825 0.095 0 0 0 0
0.835 0.095 0 0 0 0
0.845 0.095 0 0 0 0
0.855 0.095 0 0 0 0
0.865 0.095 0 0 0 0
0.875 0.095 0 0 0 0
0.885 0.095 0 0 0 0
0.895 0.095 0 0 0 0
0.905 0.095 0 0 0 0
0.915 0.095 0 0 0 0
0.925 0.095 0 0 0 0
0.935 0.095 0 0 0 0
0.945 0.095 0 0 0 0
0.955 0.095 0 0 0 0
0.965 0.095 0 0 0 0
0.975 0.095 0 0 0 0
0.985 0.095 0 0 0 0
0.995 0.095 0 0 0 0
1.005 0.095 0 0 0 0
0.005 0.105 0 0 0 0
0.015 0.105 0 0 0 0
0.025 0.105 0 0 0 0
0.035 0.105 0 0 0 0
0.045 0.105 0 0 0 0
0.055 0.105 0 0 0 0
0.065 0.105 0 0 0 0
0.075 0.105 0 0 0 0
0.085 0.105 0 0 0 0
0.095 0.105 0 0 0 0
0.105 0.105 0 0 0 0
0.115 0.105 0 0 0 0
0.125 0.105 0 0 0 0
0.135 0.105 0 0 0 0
0.145 0.105 0 0 0 0
0.155 0.105 0 0 0 0
0.165 0.105 0 0 0 0
0.175 0.105 0 0 0 0
0.185 0.105 0 0 0 0
0.195 0.105 0 0 0 0
0.205 0.105 0 0 0 0
0.215 0.105 0 0 0 0
0.225 0.105 0 0 0 0
0.235 0.105 0 0 0 0
0.245 0.105 0 0 0 0
0.255 0.105 0 0 0 0
0.265 0.105 0 0 0 0
0.275 0.105 0 0 0 0
0.285 0.105 0 0 0 0
0.295 0.105 0 0 0 0
0.305 0.105 0 0 0 0
0.315 0.105 0 0 0 0
0.325 0.105 0 0 0 0
0.335 0.105 0 0 0 0
0.345 0.105 0 0 0 0
0.355 0.105 0 0 0 0
0.365 0.105 0 0 0 0
0.375 0.105 0 0 0 0
0.385 0.105 0 0 0 0
0.395 0.105 0 0 0 0
0.405 0.105 0 0 0 0
0.415 0.105 0 0 0 0
0.425 0.105 0 0 0 0
0.435 0.105 0 0 0 0
0.445 0.105 0 0 0 0
0.455 0.105 0 0 0 0
0.465 0.105 0 0 0 0
0.475 0.105 0 0 0 0
0.485 0.105 0 0 0 0
0.495 0.105 0 0 0 0
0.505 0.105 0 0 0 0
0.515 0.105 0 0 0 0
0.525 0.105 0 0 0 0
0.535 0.105 0 0 0 0
0.545 0.105 0 0 0 0
0.555 0.105 0 0 0 0
0.565 0.105 0 0 0 0
0.575 0.105 0 0 0 0
0.585 0.105 0 0 0 0
0.595 0.105 0 0 0 0
0.605 0.105 0 0 0 0
0.615 0.105 0 0 0 0
0.625 0.105 0 0 0 0
0.635 0.105 0 0 0 0
0.645 0.105 0 0 0 0
0.655 0.105 0 0 0 0
0.665 0.105 0 0 0 0
0.675 0.105 0 0 0 0
0.685 0.105 0 0 0 0
0.695 0.105 0 0 0 0
0.705 0.105 0 0 0 0
0.715 0.105 0 0 0 0
0.725 0.105 0 0 0 0
0.735 0.105 0 0 0 0
0.745 0.105 0 0 0 0
0.755 0.105 0 0 0 0
0.765 0.105 0 0 0 0
0.775 0.105 0 0 0 0
0.785 0.105 0 0 0 0
0.795 0.105 0 0 0 0
0.805 0.105 0 0 0 0
0.815 0.105 0 0 0 0
0.825 0.105 0 0 0 0
0.835 0.105 0 0 0 0
0.845 0.105 0 0 0 0
0.855 0.105 0 0 0 0
0.865 0.105 0 0 0 0
0.875 0.105 0 0 0 0
0.885 0.105 0 0 0 0
0.895 0.105 0 0 0 0
0.905 0.105 0 0 0 0
0.915 0.105 0 0 0 0
0.925 0.105 0 0 0 0
0.935 0.105 0 0 0 0
0.945 0.105 0 0 0 0
0.955 0.105 0 0 0 0
0.965 0.105 0 0 0 0
0.975 0.105 0 0 0 0
0.985 0.105 0 0 0 0
0.995 0.105 0 0 0 0
1.005 0.105 0 0 0 0
0.005 0.115 0 0 0 0
0.015 0.115 0 0 0 0
0.025 0.115 0 0 0 0
0.035 0.115 0 0 0 0
0.045 0.115 0 0 0 0
0.055 0.115 0 0 0 0
0.065 0.115 0 0 0 0
0.075 0.115 0 0 0 0
0.085 0.115 0 0 0 0
0.095 0.115 0 0 0 0
0.105 0.115 0 0 0 0
0.115 0.115 0 0 0 0
0.125 0.115 0 0 0 0
0.135 0.115 0 0 0 0
0.145 0.115 0 0 0 0
0.155 0.115 0 0 0 0
0.165 0.115 0 0 0 0
0.175 0.115 0 0 0 0
0.185 0.115 0 0 0 0
0.195 0.115 0 0 0 0
0.205 0.115 0 0 0 0
0.215 0.115 0 0 0 0
0.225 0.115 0 0 0 0
0.235 0.115 0 0 0 0
0.245 0.115 0 0 0 0
0.255 0.115 0 0 0 0
0.265 0.115 0 0 0 0
0.275 0.115 0 0 0 0
0.285 0.115 0 0 0 0
0.295 0.115 0 0 0 0
0.305 0.115 0 0 0 0
0.315 0.115 0 0 0 0
0.325 0.115 0 0 0 0
0.335 0.115 0 0 0 0
0.345 0.115 0 0 0 0
0.355 0.115 0 0 0 0
0.365 0.115 0 0 0 0
0.375 0.115 0 0 0 0
0.385 0.115 0 0 0 0
0.395 0.115 0 0 0 0
0.405 0.115 0 0 0 0
0.415 0.115 0 0 0 0
0.425 0.115 0 0 0 0
0.435 0.115 0 0 0 0
0.445 0.115 0 0 0 0
0.455 0.115 0 0 0 0
0.465 0.115 0 0 0 0
0.475 0.115 0 0 0 0
0.485 0.115 0 0 0 0
0.495 0.115 0 0 0 0
0.505 0.115 0 0 0 0
0.515 0.115 0 0 0 0
0.525 0.115 0 0 0 0
0.535 0.115 0 0 0 0
0.545 0.115 0 0 0 0
0.555 0.115 0 0 0 0
0.565 0.115 0 0 0 0
0.575 0.115 0 0 0 0
0.585 0.115 0 0 0 0
0.595 0.115 0 0 0 0
0.605 0.115 0 0 0 0
0.615 0.115 0 0 0 0
0.625 0.115 0 0 0 0
0.635 0.115 0 0 0 0
0.645 0.115 0 0 0 0
0.655 0.115 0 0 0 0
0.665 0.115 0 0 0 0
0.675 0.115 0 0 0 0
0.685 0.115 0 0 0 0
0.695 0.115 0 0 0 0
0.705 0.115 0 0 0 0
0.715 0.115 0 0 0 0
0.725 0.115 0 0 0 0
0.735 0.115 0 0 0 0
0.745 0.115 0 0 0 0
0.755 0.115 0 0 0 0
0.765 0.115 0 0 0 0
0.775 0.115 0 0 0 0
0.785 0.115 0 0 0 0
0.795 0.115 0 0 0 0
0.805 0.115 0 0 0 0
0.815 0.115 0 0 0 0
0.825 0.115 0 0 0 0
0.835 0.115 0 0 0 0
0.845 0.115 0 0 0 0
0.855 0.115 0 0 0 0
0.865 0.115 0 0 0 0
0.875 0.115 0 0 0 0
0.885 0.115 0 0 0 0
0.895 0.115 0 0 0 0
0.905 0.115 0 0 0 0
0.915 0.115 0 0 0 0
0.925 0.115 0 0 0 0
0.935 0.115 0 0 0 0
0.945 0.115 0 0 0 0
0.955 0.115 0 0 0 0
0.965 0.115 0 0 0 0
0.975 0.115 0 0 0 0
0.985 0.115 0 0 0 0
0.995 0.115 0 0 0 0
1.005 0.115 0 0 0 0
0.005 0.125 0 0 0 0
0.015 0.125 0 0 0 0
0.025 0.125 0 0 0 0
0.035 0.125 0 0 0 0
0.045 0.125 0 0 0 0
0.055 0.125 0 0 0 0
0.065 0.125 0 0 0 0
0.075 0.125 0 0 0 0
0.085 0.125 0 0 0 0
0.095 0.125 0 0 0 0
0.105 0.125 0 0 0 0
0.115 0.125 0 0 0 0
0.125 0.125 0 0 0 0
0.135 0.125 0 0 0 0
0.145 0.125 0 0 0 0
0.155 0.125 0 0 0 0
0.165 0.125 0 0 0 0
0.175 0.125 0 0 0 0
0.185 0.125 0 0 0 0
0.195 0.125 0 0 0 0
0.205 0.125 0 0 0 0
0.215 0.125 0 0 0 0
0.225 0.125 0 0 0 0
0.235 0.125 0 0 0 0
0.245 0.125 0 0 0 0
0.255 0.125 0 0 0 0
0.265 0.125 0 0 0 0
0.275 0.125 0 0 0 0
0.285 0.125 0 0 0 0
0.295 0.125 0 0 0 0
0.305 0.125 0 0 0 0
0.315 0.125 0 0 0 0
0.325 0.125 0 0 0 0
0.335 0.125 0 0 0 0
0.345 0.125 0 0 0 0
0.355 0.125 0 0 0 0
0.365 0.125 0 0 0 0
0.375 0.125 0 0 0 0
0.385 0.125 0 0 0 0
0.395 0.125 0 0 0 0
0.405 0.125 0 0 0 0
0.415 0.125 0 0 0 0
0.425 0.125 0 0 0 0
0.435 0.125 0 0 0 0
0.445 0.125 0 0 0 0
0.455 0.125 0 0 0 0
0.465 0.125 0 0 0 0
0.475 0.125 0 0 0 0
0.485 0.125 0 0 0 0
0.495 0.125 0 0 0 0
0.505 0.125 0 0 0 0
0.515 0.125 0 0 0 0
0.525 0.125 0 0 0 0
0.535 0.125 0 0 0 0
0.545 0.125 0 0 0 0
0.555 0.125 0 0 0 0
0.565 0.125 0 0 0 0
0.575 0.125 0 0 0 0
0.585 0.125 0 0 0 0
0.595 0.125 0 0 0 0
0.605 0.125 0 0 0 0
0.615 0.125 0 0 0 0
0.625 0.125 0 0 0 0
0.635 0.125 0 0 0 0
0.645 0.125 0 0 0 0
0.655 0.125 0 0 0 0
0.665 0.125 0 0 0 0
0.675 0.125 0 0 0 0
0.685 0.125 0 0 0 0
0.695 0.125 0 0 0 0
0.705 0.125 0 0 0 0
0.715 0.125 0 0 0 0
0.725 0.125 0 0 0 0
0.735 0.125 0 0 0 0
0.745 0.125 0 0 0 0
0.755 0.125 0 0 0 0
0.765 0.125 0 0 0 0
0.775 0.125 0 0 0 0
0.785 0.125 0 0 0 0
0.795 0.125 0 0 0 0
0.805 0.125 0 0 0 0
0.815 0.125 0 0 0 0
0.825 0.125 0 0 0 0
0.835 0.125 0 0 0 0
0.845 0.125 0 0 0 0
0.855 0.125 0 0 0 0
0.865 0.125 0 0 0 0
0.875 0.125 0 0 0 0
0.885 0.125 0 0 0 0
0.895 0.125 0 0 0 0
0.905 0.125 0 0 0 0
0.915 0.125 0 0 0 0
0.925 0.125 0 0 0 0
0.935 0.125 0 0 0 0
0.945 0.125 0 0 0 0
0.955 0.125 0 0 0 0
0.965 0.125 0 0 0 0
0.975 0.125 0 0 0 0
0.985 0.125 0 0 0 0
0.995 0.125 0 0 0 0
1.005 0.125 0 0 0 0
0.005 0.135 0 0 0 0
0.015 0.135 0 0 0 0
0.025 0.135 0 0 0 0
0.035 0.135 0 0 0 0
0.045 0.135 0 0 0 0
0.055 0.135 0 0 0 0
0.065 0.135 0 0 0 0
0.075 0.135 0 0 0 0
0.085 0.135 0 0 0 0
0.095 0.135 0 0 0 0
0.105 0.135 0 0 0 0
0.115 0.135 0 0 0 0
0.125 0.135 0 0 0 0
0.135 0.135 0 0 0 0
0.145 0.135 0 0 0 0
0.155 0.135 0 0 0 0
0.165 0.135 0 0 0 0
0.175 0.135 0 0 0 0
0.185 0.135 0 0 0 0
0.195 0.135 0 0 0 0
0.205 0.135 0 0 0 0
0.215 0.135 0 0 0 0
0.225 0.135 0 0 0 0
0.235 0.135 0 0 0 0
0.245 0.135 0 0 0 0
0.255 0.135 0 0 0 0
0.265 0.135 0 0 0 0
0.275 0.135 0 0 0 0
0.285 0.135 0 0 0 0
0.295 0.135 0 0 0 0
0.305 0.135 0 0 0 0
0.315 0.135 0 0 0 0
0.325 0.135 0 0 0 0
0.335 0.135 0 0 0 0
0.345 0.135 0 0 0 0
0.355 0.135 0 0 0 0
0.365 0.135 0 0 0 0
0.375 0.135 0 0 0 0
0.385 0.135 0 0 0 0
0.395 0.135 0 0 0 0
0.405 0.135 0 0 0 0
0.415 0.135 0 0 0 0
0.425 0.135 0 0 0 0
0.435 0.135 0 0 0 0
0.445 0.135 0 0 0 0
0.455 0.135 0 0 0 0
0.465 0.135 0 0 0 0
0.475 0.135 0 0 0 0
0.485 0.135 0 0 0 0
0.495 0.135 0 0 0 0
0.505 0.135 0 0 0 0
0.515 0.135 0 0 0 0
0.525 0.135 0 0 0 0
0.535 0.135 0 0 0 0
0.545 0.135 0 0 0 0
0.555 0.135 0 0 0 0
0.565 0.135 0 0 0 0
0.575 0.135 0 0 0 0
0.585 0.135 0 0 0 0
0.595 0.135 0 0 0 0
0.605 0.135 0 0 0 0
0.615 0.135 0 0 0 0
0.625 0.135 0 0 0 0
0.635 0.135 0 0 0 0
0.645 0.135 0 0 0 0
0.655 0.135 0 0 0 0
0.665 0.135 0 0 0 0
0.675 0.135 0 0 0 0
0.685 0.135 0 0 0 0
0.695 0.135 0 0 0 0
0.705 0.135 0 0 0 0
0.715 0.135 0 0 0 0
0.725 0.135 0 0 0 0
0.735 0.135 0 0 0 0
0.745 0.135 0 0 0 0
0.755 0.135 0 0 0 0
0.765 0.135 0 0 0 0
0.775 0.135 0 0 0 0
0.785 0.135 0 0 0 0
0.795 0.135 0 0 0 0
0.805 0.135 0 0 0 0
0.815 0.135 0 0 0 0
0.825 0.135 0 0 0 0
0.835 0.135 0 0 0 0
0.845 0.135 0 0 0 0
0.855 0.135 0 0 0 0
0.865 0.135 0 0 0 0
0.875 0.135 0 0 0 0
0.885 0.135 0 0 0 0
0.895 0.135 0 0 0 0
0.905 0.135 0 0 0 0
0.915 0.135 0 0 0 0
0.925 0.135 0 0 0 0
0.935 0.135 0 0 0 0
0.945 0.135 0 0 0 0
0.955 0.135 0 0 0 0
0.965 0.135 0 0 0 0
0.975 0.135 0 0 0 0
0.985 0.135 0 0 0 0
0.995 0.135 0 0 0 0
1.005 0.135 0 0 0 0
0.005 0.145 0 0 0 0
0.015 0.145 0 0 0 0
0.025 0.145 0 0 0 0
0.035 0.145 0 0 0 0
0.045 0.145 0 0 0 0
0.055 0.145 0 0 0 0
0.065 0.145 0 0 0 0
0.075 0.145 0 0 0 0
0.085 0.145 0 0 0 0
0.095 0.145 0 0 0 0
0.105 0.145 0 0 0 0
0.115 0.145 0 0 0 0
0.125 0.145 0 0 0 0
0.135 0.145 0 0 0 0
0.145 0.145 0 0 0 0
0.155 0.145 0 0 0 0
0.165 0.145 0 0 0 0
0.175 0.145 0 0 0 0
0.185 0.145 0 0 0 0
0.195 0.145 0 0 0 0
0.205 0.145 0 0 0 0
0.215 0.145 0 0 0 0
0.225 0.145 0 0 0 0
0.235 0.145 0 0 0 0
0.245 0.145 0 0 0 0
0.255 0.145 0 0 0 0
0.265 0.145 0 0 0 0
0.275 0.145 0 0 0 0
0.285 0.145 0 0 0 0
0.295 0.145 0 0 0 0
0.305 0.145 0 0 0 0
0.315 0.145 0 0 0 0
0.325 0.145 0 0 0 0
0.335 0.145 0 0 0 0
0.345 0.145 0 0 0 0
0.355 0.145 0 0 0 0
0.365 0.145 0 0 0 0
0.375 0.145 0 0 0 0
0.385 0.145 0 0 0 0
0.395 0.145 0 0 0 0
0.405 0.145 0 0 0 0
0.415 0.145 0 0 0 0
0.425 0.145 0 0 0 0
0.435 0.145 0 0 0 0
0.445 0.145 0 0 0 0
0.455 0.145 0 0 0 0
0.465 0.145 0 0 0 0
0.475 0.145 0 0 0 0
0.485 0.145 0 0 0 0
0.495 0.145 0 0 0 0
0.505 0.145 0 0 0 0
0.515 0.145 0 0 0 0
0.525 0.145 0 0 0 0
0.535 0.145 0 0 0 0
0.545 0.145 0 0 0 0
0.555 0.145 0 0 0 0
0.565 0.145 0 0 0 0
0.575 0.145 0 0 0 0
0.585 0.145 0 0 0 0
0.595 0.145 0 0 0 0
0.605 0.145 0 0 0 0
0.615 0.145 0 0 0 0
0.625 0.145 0 0 0 0
0.635 0.145 0 0 0 0
0.645 0.145 0 0 0 0
0.655 0.145 0 0 0 0
0.665 0.145 0 0 0 0
0.675 0.145 0 0 0 0
0.685 0.145 0 0 0 0
0.695 0.145 0 0 0 0
0.705 0.145 0 0 0 0
0.715 0.145 0 0 0 0
0.725 0.145 0 0 0 0
0.735 0.145 0 0 0 0
0.745 0.145 0 0 0 0
0.755 0.145 0 0 0 0
0.765 0.145 0 0 0 0
0.775 0.145 0 0 0 0
0.785 0.145 0 0 0 0
0.795 0.145 0 0 0 0
0.805 0.145 0 0 0 0
0.815 0.145 0 0 0 0
0.825 0.145 0 0 0 0