Variables = x, y, u, v, umag, p
ZONE I= 101 J= 101 F=point
0 0 -2.95936e-06 -2.88583e-08 2.9595e-06 0.0147977
0.01 0 0 0 0 0.0197274
0.02 0 3.38813e-21 0 3.38813e-21 0.0197134
0.03 0 0 -5.29396e-23 5.29396e-23 0.0196825
0.04 0 3.38813e-21 0 3.38813e-21 0.0196354
0.05 0 -3.38813e-21 0 3.38813e-21 0.0195738
0.06 0 -3.38813e-21 0 3.38813e-21 0.0195005
0.07 0 0 0 0 0.0194182
0.08 0 -1.69407e-21 0 1.69407e-21 0.0193292
0.09 0 8.47033e-22 1.69407e-21 1.89402e-21 0.0192357
0.1 0 0 0 0 0.0191395
0.11 0 -3.38813e-21 0 3.38813e-21 0.019042
0.12 0 6.77626e-21 0 6.77626e-21 0.0189445
0.13 0 0 1.69407e-21 1.69407e-21 0.0188478
0.14 0 0 0 0 0.0187526
0.15 0 1.35525e-20 0 1.35525e-20 0.0186596
0.16 0 0 3.38813e-21 3.38813e-21 0.018569
0.17 0 2.71051e-20 -3.38813e-21 2.7316e-20 0.0184813
0.18 0 0 3.38813e-21 3.38813e-21 0.0183967
0.19 0 0 3.38813e-21 3.38813e-21 0.0183155
0.2 0 0 0 0 0.0182378
0.21 0 5.42101e-20 0 5.42101e-20 0.018164
0.22 0 -5.42101e-20 -3.38813e-21 5.43159e-20 0.0180943
0.23 0 0 0 0 0.0180291
0.24 0 -5.42101e-20 0 5.42101e-20 0.0179685
0.25 0 0 0 0 0.017913
0.26 0 1.0842e-19 -3.38813e-21 1.08473e-19 0.017863
0.27 0 0 0 0 0.0178189
0.28 0 0 3.38813e-21 3.38813e-21 0.0177812
0.29 0 -1.0842e-19 -3.38813e-21 1.08473e-19 0.0177505
0.3 0 0 3.38813e-21 3.38813e-21 0.0177271
0.31 0 1.0842e-19 -3.38813e-21 1.08473e-19 0.0177117
0.32 0 0 0 0 0.0177047
0.33 0 0 0 0 0.0177067
0.34 0 -1.0842e-19 3.38813e-21 1.08473e-19 0.0177182
0.35 0 0 0 0 0.0177396
0.36 0 1.0842e-19 3.38813e-21 1.08473e-19 0.0177714
0.37 0 1.0842e-19 -3.38813e-21 1.08473e-19 0.017814
0.38 0 0 3.38813e-21 3.38813e-21 0.0178676
0.39 0 0 -3.38813e-21 3.38813e-21 0.0179325
0.4 0 2.1684e-19 3.38813e-21 2.16867e-19 0.0180087
0.41 0 0 0 0 0.0180964
0.42 0 -2.1684e-19 0 2.1684e-19 0.0181955
0.43 0 0 1.69407e-21 1.69407e-21 0.0183057
0.44 0 -2.1684e-19 0 2.1684e-19 0.0184268
0.45 0 -2.1684e-19 1.69407e-21 2.16847e-19 0.0185583
0.46 0 -2.1684e-19 1.69407e-21 2.16847e-19 0.0186995
0.47 0 0 0 0 0.0188498
0.48 0 -2.1684e-19 8.47033e-22 2.16842e-19 0.0190082
0.49 0 0 -4.23516e-22 4.23516e-22 0.0191737
0.5 0 2.1684e-19 1.05879e-22 2.1684e-19 0.0193451
0.51 0 -2.1684e-19 0 2.1684e-19 0.0195211
0.52 0 2.1684e-19 0 2.1684e-19 0.0197003
0.53 0 0 0 0 0.0198811
0.54 0 0 0 0 0.0200619
0.55 0 0 1.69407e-21 1.69407e-21 0.0202409
0.56 0 0 0 0 0.0204163
0.57 0 2.1684e-19 0 2.1684e-19 0.0205863
0.58 0 -2.1684e-19 0 2.1684e-19 0.020749
0.59 0 -2.1684e-19 -3.38813e-21 2.16867e-19 0.0209026
0.6 0 -2.1684e-19 0 2.1684e-19 0.0210452
0.61 0 0 0 0 0.0211752
0.62 0 1.0842e-19 3.38813e-21 1.08473e-19 0.0212909
0.63 0 0 -3.38813e-21 3.38813e-21 0.0213907
0.64 0 -1.0842e-19 -3.38813e-21 1.08473e-19 0.0214733
0.65 0 1.0842e-19 -3.38813e-21 1.08473e-19 0.0215375
0.66 0 0 0 0 0.0215823
0.67 0 1.0842e-19 0 1.0842e-19 0.021607
0.68 0 -1.0842e-19 0 1.0842e-19 0.021611
0.69 0 0 0 0 0.021594
0.7 0 -5.42101e-20 -3.38813e-21 5.43159e-20 0.021556
0.71 0 5.42101e-20 0 5.42101e-20 0.0214974
0.72 0 -5.42101e-20 3.38813e-21 5.43159e-20 0.0214185
0.73 0 0 0 0 0.0213203
0.74 0 0 0 0 0.0212037
0.75 0 0 -3.38813e-21 3.38813e-21 0.0210701
0.76 0 -2.71051e-20 -3.38813e-21 2.7316e-20 0.0209209
0.77 0 1.35525e-20 3.38813e-21 1.39696e-20 0.0207579
0.78 0 -3.38813e-21 3.38813e-21 4.79154e-21 0.020583
0.79 0 0 0 0 0.0203981
0.8 0 0 0 0 0.0202055
0.81 0 -1.35525e-20 -1.69407e-21 1.3658e-20 0.0200074
0.82 0 0 -1.69407e-21 1.69407e-21 0.0198062
0.83 0 2.71051e-20 0 2.71051e-20 0.0196043
0.84 0 2.71051e-20 -8.47033e-22 2.71183e-20 0.0194041
0.85 0 2.71051e-20 0 2.71051e-20 0.0192079
0.86 0 2.71051e-20 0 2.71051e-20 0.0190182
0.87 0 -2.71051e-20 -1.05879e-22 2.71053e-20 0.0188372
0.88 0 2.71051e-20 0 2.71051e-20 0.0186673
0.89 0 0 0 0 0.0185107
0.9 0 0 -8.47033e-22 8.47033e-22 0.0183693
0.91 0 2.71051e-20 -8.47033e-22 2.71183e-20 0.0182453
0.92 0 0 0 0 0.0181402
0.93 0 0 0 0 0.0180556
0.94 0 -1.35525e-20 -1.69407e-21 1.3658e-20 0.0179924
0.95 0 -6.77626e-21 0 6.77626e-21 0.017951
0.96 0 6.77626e-21 0 6.77626e-21 0.0179307
0.97 0 0 -4.23516e-22 4.23516e-22 0.0179288
0.98 0 4.23516e-22 1.05879e-22 4.36551e-22 0.0179401
0.99 0 -1.19114e-22 0 1.19114e-22 0.0179556
1 0 -1.11841e-07 2.34696e-06 2.34962e-06 0.0134722
0 0.01 0 0 0 0.0197248
0.01 0.01 3.89367e-05 -8.63608e-06 3.9883e-05 0.0197225
0.02 0.01 8.10568e-05 -1.16471e-05 8.18893e-05 0.0197096
0.03 0.01 0.000119856 -6.34657e-06 0.000120024 0.0196803
0.04 0.01 0.000146326 5.37205e-06 0.000146424 0.0196356
0.05 0.01 0.000154601 2.11041e-05 0.000156035 0.0195773
0.06 0.01 0.000141199 3.89039e-05 0.00014646 0.0195079
0.07 0.01 0.000104439 5.73996e-05 0.000119173 0.0194298
0.08 0.01 4.39152e-05 7.56896e-05 8.75069e-05 0.0193451
0.09 0.01 -3.99239e-05 9.32155e-05 0.000101405 0.0192559
0.1 0.01 -0.000146084 0.000109658 0.000182662 0.0191639
0.11 0.01 -0.000273252 0.000124862 0.000300428 0.0190704
0.12 0.01 -0.000419958 0.000138782 0.000442296 0.0189767
0.13 0.01 -0.00058469 0.000151444 0.000603985 0.0188835
0.14 0.01 -0.000765965 0.00016292 0.0007831 0.0187915
0.15 0.01 -0.000962381 0.000173308 0.000977862 0.0187015
0.16 0.01 -0.00117265 0.000182716 0.00118679 0.0186136
0.17 0.01 -0.00139558 0.000191253 0.00140862 0.0185284
0.18 0.01 -0.00163013 0.000199024 0.00164224 0.0184462
0.19 0.01 -0.00187535 0.000206121 0.00188665 0.018367
0.2 0.01 -0.00213039 0.000212619 0.00214098 0.0182914
0.21 0.01 -0.00239448 0.000218579 0.00240444 0.0182193
0.22 0.01 -0.00266691 0.00022404 0.0026763 0.0181513
0.23 0.01 -0.00294698 0.000229026 0.00295586 0.0180874
0.24 0.01 -0.00323403 0.00023354 0.00324245 0.0180282
0.25 0.01 -0.00352738 0.000237569 0.00353537 0.0179738
0.26 0.01 -0.00382632 0.000241085 0.00383391 0.0179248
0.27 0.01 -0.00413009 0.000244046 0.0041373 0.0178816
0.28 0.01 -0.00443787 0.000246397 0.00444471 0.0178445
0.29 0.01 -0.00474875 0.000248075 0.00475523 0.0178142
0.3 0.01 -0.00506175 0.000249006 0.00506787 0.017791
0.31 0.01 -0.00537578 0.000249115 0.00538155 0.0177755
0.32 0.01 -0.00568965 0.000248319 0.00569507 0.0177682
0.33 0.01 -0.00600207 0.000246536 0.00600714 0.0177696
0.34 0.01 -0.00631165 0.000243684 0.00631635 0.0177803
0.35 0.01 -0.00661687 0.000239681 0.00662121 0.0178005
0.36 0.01 -0.00691614 0.000234452 0.00692011 0.0178308
0.37 0.01 -0.00720777 0.000227926 0.00721138 0.0178714
0.38 0.01 -0.00749 0.000220042 0.00749323 0.0179228
0.39 0.01 -0.00776097 0.000210745 0.00776383 0.017985
0.4 0.01 -0.00801881 0.000199995 0.0080213 0.0180583
0.41 0.01 -0.00826156 0.00018776 0.0082637 0.0181427
0.42 0.01 -0.00848729 0.000174026 0.00848907 0.018238
0.43 0.01 -0.00869402 0.000158794 0.00869547 0.0183441
0.44 0.01 -0.00887982 0.000142079 0.00888096 0.0184606
0.45 0.01 -0.0090428 0.000123918 0.00904365 0.0185872
0.46 0.01 -0.00918113 0.000104364 0.00918172 0.0187233
0.47 0.01 -0.00929307 8.34905e-05 0.00929344 0.018868
0.48 0.01 -0.009377 6.13923e-05 0.0093772 0.0190206
0.49 0.01 -0.00943144 3.81838e-05 0.00943152 0.0191801
0.5 0.01 -0.00945509 1.40005e-05 0.0094551 0.0193452
0.51 0.01 -0.00944683 -1.10023e-05 0.00944684 0.0195148
0.52 0.01 -0.00940577 -3.66499e-05 0.00940584 0.0196874
0.53 0.01 -0.00933126 -6.27494e-05 0.00933147 0.0198615
0.54 0.01 -0.00922289 -8.90914e-05 0.00922332 0.0200356
0.55 0.01 -0.00908058 -0.000115451 0.00908132 0.0202079
0.56 0.01 -0.00890451 -0.000141592 0.00890564 0.0203767
0.57 0.01 -0.00869519 -0.000167268 0.0086968 0.0205403
0.58 0.01 -0.00845343 -0.000192225 0.00845562 0.0206968
0.59 0.01 -0.0081804 -0.000216207 0.00818325 0.0208444
0.6 0.01 -0.00787756 -0.000238958 0.00788118 0.0209814
0.61 0.01 -0.00754672 -0.000260226 0.0075512 0.0211061
0.62 0.01 -0.00718998 -0.000279769 0.00719542 0.021217
0.63 0.01 -0.00680978 -0.000297356 0.00681626 0.0213125
0.64 0.01 -0.00640878 -0.000312774 0.00641641 0.0213914
0.65 0.01 -0.00598996 -0.000325831 0.00599882 0.0214524
0.66 0.01 -0.00555649 -0.000336358 0.00556666 0.0214947
0.67 0.01 -0.00511173 -0.000344215 0.0051233 0.0215175
0.68 0.01 -0.00465921 -0.000349294 0.00467229 0.0215203
0.69 0.01 -0.00420259 -0.000351519 0.00421727 0.0215029
0.7 0.01 -0.00374558 -0.000350851 0.00376197 0.0214652
0.71 0.01 -0.00329192 -0.000347287 0.00331018 0.0214075
0.72 0.01 -0.00284533 -0.000340861 0.00286568 0.0213304
0.73 0.01 -0.00240949 -0.000331645 0.0024322 0.0212345
0.74 0.01 -0.00198792 -0.000319747 0.00201347 0.021121
0.75 0.01 -0.00158402 -0.00030531 0.00161317 0.0209911
0.76 0.01 -0.00120097 -0.000288508 0.00123514 0.0208462
0.77 0.01 -0.000841709 -0.000269549 0.000883816 0.020688
0.78 0.01 -0.000508906 -0.000248663 0.000566409 0.0205184
0.79 0.01 -0.00020491 -0.000226105 0.000305142 0.0203392
0.8 0.01 6.8266e-05 -0.000202147 0.000213363 0.0201527
0.81 0.01 0.000308974 -0.000177079 0.000356121 0.019961
0.82 0.01 0.00051596 -0.000151206 0.000537659 0.0197664
0.83 0.01 0.000688374 -0.000124845 0.000699604 0.0195712
0.84 0.01 0.00082579 -9.8323e-05 0.000831623 0.0193778
0.85 0.01 0.000928214 -7.19745e-05 0.000931 0.0191883
0.86 0.01 0.000996108 -4.61474e-05 0.000997176 0.0190051
0.87 0.01 0.0010304 -2.12063e-05 0.00103062 0.0188305
0.88 0.01 0.00103253 2.46006e-06 0.00103254 0.0186666
0.89 0.01 0.00100446 2.44272e-05 0.00100476 0.0185155
0.9 0.01 0.000948732 4.42185e-05 0.000949762 0.0183791
0.91 0.01 0.000868543 6.12832e-05 0.000870702 0.0182592
0.92 0.01 0.000767824 7.49674e-05 0.000771475 0.0181575
0.93 0.01 0.000651355 8.448e-05 0.00065681 0.0180752
0.94 0.01 0.000524889 8.88593e-05 0.000532357 0.0180132
0.95 0.01 0.000395292 8.69661e-05 0.000404745 0.0179717
0.96 0.01 0.000270612 7.7571e-05 0.00028151 0.01795
0.97 0.01 0.000159977 5.9726e-05 0.000170763 0.0179458
0.98 0.01 7.27089e-05 3.39448e-05 8.02423e-05 0.0179546
0.99 0.01 1.98625e-05 4.97134e-06 2.04752e-05 0.017972
1 0.01 0 0 0 0.0179825
0 0.02 0 0 0 0.0197227
0.01 0.02 5.62131e-05 -2.98967e-05 6.36689e-05 0.0197213
0.02 0.02 0.000113516 -3.47347e-05 0.000118711 0.0197101
0.03 0.02 0.00016041 -1.71438e-05 0.000161323 0.0196832
0.04 0.02 0.000182892 1.67489e-05 0.000183658 0.0196424
0.05 0.02 0.000171795 6.10119e-05 0.000182307 0.0195895
0.06 0.02 0.000121451 0.000110921 0.00016448 0.0195265
0.07 0.02 2.89169e-05 0.000163034 0.000165579 0.0194555
0.08 0.02 -0.00010673 0.000214981 0.000240017 0.0193783
0.09 0.02 -0.000284976 0.000265211 0.000389292 0.0192967
0.1 0.02 -0.000504333 0.000312777 0.000593449 0.0192121
0.11 0.02 -0.000762705 0.000357166 0.000842191 0.0191258
0.12 0.02 -0.00105765 0.000398165 0.00113012 0.0190389
0.13 0.02 -0.0013866 0.000435773 0.00145346 0.0189521
0.14 0.02 -0.00174696 0.000470122 0.00180911 0.0188661
0.15 0.02 -0.00213624 0.000501429 0.0021943 0.0187816
0.16 0.02 -0.00255209 0.000529951 0.00260654 0.0186988
0.17 0.02 -0.00299235 0.00055596 0.00304355 0.0186184
0.18 0.02 -0.00345501 0.000579714 0.0035033 0.0185404
0.19 0.02 -0.00393825 0.000601447 0.00398392 0.0184653
0.2 0.02 -0.00444042 0.000621355 0.00448368 0.0183932
0.21 0.02 -0.00495996 0.000639589 0.00500103 0.0183245
0.22 0.02 -0.0054954 0.000656252 0.00553445 0.0182594
0.23 0.02 -0.00604535 0.000671396 0.00608252 0.0181983
0.24 0.02 -0.00660839 0.000685024 0.0066438 0.0181413
0.25 0.02 -0.0071831 0.000697094 0.00721684 0.018089
0.26 0.02 -0.00776799 0.000707521 0.00780014 0.0180417
0.27 0.02 -0.00836148 0.000716181 0.0083921 0.0179998
0.28 0.02 -0.00896188 0.000722918 0.00899099 0.0179637
0.29 0.02 -0.00956735 0.000727549 0.00959497 0.0179339
0.3 0.02 -0.0101759 0.00072987 0.010202 0.0179108
0.31 0.02 -0.0107853 0.000729662 0.0108099 0.017895
0.32 0.02 -0.0113932 0.000726695 0.0114164 0.0178869
0.33 0.02 -0.0119971 0.000720738 0.0120188 0.0178869
0.34 0.02 -0.0125943 0.000711561 0.0126144 0.0178955
0.35 0.02 -0.0131818 0.000698942 0.0132003 0.0179132
0.36 0.02 -0.0137565 0.000682673 0.0137734 0.0179403
0.37 0.02 -0.0143152 0.000662563 0.0143305 0.0179772
0.38 0.02 -0.0148545 0.000638447 0.0148682 0.0180241
0.39 0.02 -0.015371 0.000610185 0.0153831 0.0180812
0.4 0.02 -0.015861 0.000577672 0.0158716 0.0181486
0.41 0.02 -0.016321 0.000540842 0.01633 0.0182264
0.42 0.02 -0.0167473 0.000499667 0.0167547 0.0183145
0.43 0.02 -0.0171362 0.000454166 0.0171422 0.0184127
0.44 0.02 -0.0174841 0.000404408 0.0174888 0.0185208
0.45 0.02 -0.0177877 0.000350513 0.0177912 0.0186382
0.46 0.02 -0.0180435 0.000292655 0.0180459 0.0187645
0.47 0.02 -0.0182485 0.000231064 0.0182499 0.018899
0.48 0.02 -0.0183996 0.000166028 0.0184003 0.0190408
0.49 0.02 -0.0184942 9.78932e-05 0.0184945 0.019189
0.5 0.02 -0.0185301 2.7062e-05 0.0185301 0.0193426
0.51 0.02 -0.0185053 -4.60071e-05 0.0185054 0.0195003
0.52 0.02 -0.0184183 -0.000120803 0.0184187 0.0196609
0.53 0.02 -0.0182679 -0.000196764 0.018269 0.0198228
0.54 0.02 -0.0180537 -0.000273284 0.0180558 0.0199847
0.55 0.02 -0.0177756 -0.000349718 0.017779 0.0201449
0.56 0.02 -0.017434 -0.000425387 0.0174392 0.0203018
0.57 0.02 -0.01703 -0.000499588 0.0170373 0.0204538
0.58 0.02 -0.0165653 -0.000571601 0.0165751 0.020599
0.59 0.02 -0.016042 -0.000640698 0.0160548 0.0207359
0.6 0.02 -0.0154631 -0.000706157 0.0154792 0.0208628
0.61 0.02 -0.014832 -0.00076727 0.0148518 0.0209781
0.62 0.02 -0.0141525 -0.000823352 0.0141764 0.0210804
0.63 0.02 -0.0134292 -0.000873757 0.0134576 0.0211682
0.64 0.02 -0.0126672 -0.000917887 0.0127004 0.0212404
0.65 0.02 -0.0118718 -0.000955203 0.0119102 0.0212958
0.66 0.02 -0.0110491 -0.000985235 0.0110929 0.0213336
0.67 0.02 -0.0102051 -0.00100759 0.0102547 0.0213531
0.68 0.02 -0.00934642 -0.00102197 0.00940213 0.0213538
0.69 0.02 -0.00847977 -0.00102815 0.00854187 0.0213355
0.7 0.02 -0.00761197 -0.00102604 0.00768081 0.0212982
0.71 0.02 -0.00674992 -0.00101562 0.0068259 0.0212422
0.72 0.02 -0.00590048 -0.000996979 0.00598411 0.021168
0.73 0.02 -0.00507039 -0.000970328 0.0051624 0.0210763
0.74 0.02 -0.00426619 -0.000935967 0.00436766 0.0209681
0.75 0.02 -0.00349415 -0.000894297 0.00360678 0.0208446
0.76 0.02 -0.00276016 -0.000845811 0.00288684 0.0207073
0.77 0.02 -0.00206968 -0.000791088 0.00221572 0.0205576
0.78 0.02 -0.00142769 -0.000730785 0.00160385 0.0203973
0.79 0.02 -0.000838566 -0.000665626 0.00107063 0.0202283
0.8 0.02 -0.0003061 -0.000596395 0.000670361 0.0200525
0.81 0.02 0.000166598 -0.000523921 0.000549771 0.0198721
0.82 0.02 0.000577132 -0.000449081 0.000731269 0.0196892
0.83 0.02 0.000923863 -0.000372793 0.000996242 0.0195059
0.84 0.02 0.00120594 -0.00029601 0.00124173 0.0193244
0.85 0.02 0.00142331 -0.000219715 0.00144017 0.0191469
0.86 0.02 0.0015768 -0.000144931 0.00158345 0.0189754
0.87 0.02 0.0016681 -7.2728e-05 0.00166968 0.018812
0.88 0.02 0.00169984 -4.24658e-06 0.00169984 0.0186587
0.89 0.02 0.00167564 5.92814e-05 0.00167669 0.0185174
0.9 0.02 0.0016002 0.000116496 0.00160444 0.0183897
0.91 0.02 0.00147936 0.000165862 0.00148863 0.0182773
0.92 0.02 0.00132025 0.000205623 0.00133617 0.0181815
0.93 0.02 0.00113137 0.000233743 0.00115527 0.0181035
0.94 0.02 0.000922774 0.000247883 0.000955489 0.0180437
0.95 0.02 0.000706077 0.000245456 0.000747524 0.0180025
0.96 0.02 0.000494443 0.000223897 0.000542774 0.0179791
0.97 0.02 0.000302268 0.000181475 0.000352561 0.0179723
0.98 0.02 0.000143764 0.000119364 0.000186858 0.0179789
0.99 0.02 4.15759e-05 4.57799e-05 6.18414e-05 0.0180036
1 0.02 0 0 0 0.0180221
0 0.03 0 0 0 0.0197392
0.01 0.03 5.73987e-05 -5.63065e-05 8.04054e-05 0.0197375
0.02 0.03 0.000110012 -5.76794e-05 0.000124215 0.0197262
0.03 0.03 0.00014213 -1.73788e-05 0.000143188 0.0197
0.04 0.03 0.000137183 5.21878e-05 0.000146775 0.0196611
0.05 0.03 8.43677e-05 0.000140531 0.000163911 0.0196114
0.06 0.03 -2.30703e-05 0.00023943 0.000240539 0.0195526
0.07 0.03 -0.000188733 0.000342778 0.000391301 0.0194866
0.08 0.03 -0.000413828 0.000446231 0.000608585 0.0194149
0.09 0.03 -0.000697798 0.000546841 0.000886543 0.0193391
0.1 0.03 -0.00103885 0.000642721 0.0012216 0.0192604
0.11 0.03 -0.00143436 0.000732777 0.0016107 0.01918
0.12 0.03 -0.00188123 0.000816487 0.00205077 0.0190987
0.13 0.03 -0.0023761 0.000893738 0.00253863 0.0190173
0.14 0.03 -0.00291557 0.00096469 0.00307102 0.0189366
0.15 0.03 -0.00349629 0.00102968 0.00364476 0.0188569
0.16 0.03 -0.00411506 0.00108913 0.00425675 0.0187787
0.17 0.03 -0.00476886 0.00114352 0.00490404 0.0187024
0.18 0.03 -0.00545489 0.00119331 0.00558389 0.0186283
0.19 0.03 -0.00617053 0.00123889 0.00629367 0.0185567
0.2 0.03 -0.00691336 0.00128063 0.00703097 0.0184879
0.21 0.03 -0.00768106 0.0013188 0.00779345 0.0184221
0.22 0.03 -0.00847143 0.00135356 0.00857889 0.0183595
0.23 0.03 -0.00928232 0.00138501 0.00938508 0.0183006
0.24 0.03 -0.0101116 0.00141312 0.0102098 0.0182456
0.25 0.03 -0.010957 0.00143782 0.0110509 0.0181948
0.26 0.03 -0.0118162 0.00145891 0.0119059 0.0181487
0.27 0.03 -0.0126869 0.00147614 0.0127725 0.0181076
0.28 0.03 -0.0135664 0.00148921 0.0136479 0.0180719
0.29 0.03 -0.0144519 0.00149774 0.0145293 0.0180422
0.3 0.03 -0.0153404 0.00150132 0.0154136 0.0180187
0.31 0.03 -0.0162286 0.00149953 0.0162977 0.018002
0.32 0.03 -0.017113 0.00149191 0.017178 0.0179925
0.33 0.03 -0.01799 0.00147801 0.0180506 0.0179907
0.34 0.03 -0.0188553 0.00145739 0.0189116 0.017997
0.35 0.03 -0.0197049 0.00142961 0.0197567 0.0180118
0.36 0.03 -0.0205343 0.00139428 0.0205815 0.0180354
0.37 0.03 -0.0213387 0.00135104 0.0213814 0.0180683
0.38 0.03 -0.0221134 0.00129957 0.0221515 0.0181106
0.39 0.03 -0.0228533 0.00123964 0.0228869 0.0181625
0.4 0.03 -0.0235535 0.00117105 0.0235826 0.0182242
0.41 0.03 -0.0242088 0.00109371 0.0242335 0.0182957
0.42 0.03 -0.0248142 0.00100759 0.0248346 0.018377
0.43 0.03 -0.0253644 0.000912764 0.0253808 0.0184678
0.44 0.03 -0.0258546 0.000809411 0.0258673 0.018568
0.45 0.03 -0.02628 0.000697801 0.0262893 0.0186771
0.46 0.03 -0.026636 0.00057832 0.0266423 0.0187946
0.47 0.03 -0.0269184 0.000451462 0.0269221 0.0189198
0.48 0.03 -0.027123 0.000317835 0.0271249 0.0190521
0.49 0.03 -0.0272466 0.000178161 0.0272472 0.0191905
0.5 0.03 -0.0272859 3.32711e-05 0.0272859 0.0193341
0.51 0.03 -0.0272385 -0.000115894 0.0272387 0.0194816
0.52 0.03 -0.0271023 -0.000268294 0.0271037 0.0196318
0.53 0.03 -0.0268762 -0.000422793 0.0268795 0.0197835
0.54 0.03 -0.0265595 -0.000578168 0.0265658 0.0199351
0.55 0.03 -0.0261522 -0.000733125 0.0261625 0.0200852
0.56 0.03 -0.0256553 -0.000886309 0.0256706 0.0202322
0.57 0.03 -0.0250704 -0.00103632 0.0250918 0.0203745
0.58 0.03 -0.0243999 -0.00118172 0.0244285 0.0205106
0.59 0.03 -0.023647 -0.00132109 0.0236839 0.0206387
0.6 0.03 -0.0228159 -0.00145298 0.0228621 0.0207574
0.61 0.03 -0.0219113 -0.00157601 0.0219679 0.0208651
0.62 0.03 -0.0209389 -0.00168882 0.0210069 0.0209604
0.63 0.03 -0.019905 -0.00179015 0.0199853 0.021042
0.64 0.03 -0.0188165 -0.00187883 0.0189101 0.0211088
0.65 0.03 -0.0176811 -0.0019538 0.0177888 0.0211596
0.66 0.03 -0.016507 -0.00201413 0.0166294 0.0211938
0.67 0.03 -0.0153028 -0.00205906 0.0154407 0.0212105
0.68 0.03 -0.0140774 -0.002088 0.0142314 0.0212095
0.69 0.03 -0.0128403 -0.00210052 0.0130109 0.0211904
0.7 0.03 -0.0116007 -0.00209642 0.0117887 0.0211534
0.71 0.03 -0.0103684 -0.00207567 0.0105742 0.0210986
0.72 0.03 -0.00915282 -0.00203845 0.00937707 0.0210266
0.73 0.03 -0.00796326 -0.00198516 0.00820697 0.020938
0.74 0.03 -0.00680883 -0.00191639 0.00707338 0.0208339
0.75 0.03 -0.00569823 -0.00183292 0.00598577 0.0207154
0.76 0.03 -0.00463971 -0.00173573 0.00495375 0.0205839
0.77 0.03 -0.00364089 -0.00162595 0.00398745 0.0204408
0.78 0.03 -0.00270874 -0.00150489 0.0030987 0.0202878
0.79 0.03 -0.00184946 -0.00137397 0.00230398 0.0201267
0.8 0.03 -0.00106839 -0.00123478 0.00163283 0.0199594
0.81 0.03 -0.000369976 -0.00108896 0.00115009 0.0197879
0.82 0.03 0.000242341 -0.000938277 0.000969068 0.0196142
0.83 0.03 0.000766153 -0.000784581 0.00109661 0.0194403
0.84 0.03 0.00120015 -0.000629796 0.00135536 0.0192683
0.85 0.03 0.00154418 -0.000475923 0.00161586 0.0191002
0.86 0.03 0.00179925 -0.000325042 0.00182837 0.018938
0.87 0.03 0.00196763 -0.000179332 0.00197579 0.0187835
0.88 0.03 0.00205289 -4.10969e-05 0.0020533 0.0186386
0.89 0.03 0.00205994 8.7191e-05 0.00206179 0.018505
0.9 0.03 0.00199519 0.000202845 0.00200547 0.0183842
0.91 0.03 0.00186653 0.0003029 0.00189095 0.0182777
0.92 0.03 0.00168353 0.000384053 0.00172678 0.0181867
0.93 0.03 0.00145747 0.000442617 0.00152319 0.018112
0.94 0.03 0.00120143 0.000474539 0.00129175 0.0180544
0.95 0.03 0.00093031 0.000475553 0.00104481 0.0180141
0.96 0.03 0.000660651 0.000441657 0.000794683 0.0179909
0.97 0.03 0.000410416 0.000370224 0.000552727 0.0179841
0.98 0.03 0.00019758 0.000262378 0.00032845 0.0179919
0.99 0.03 5.66554e-05 0.000126959 0.000139027 0.0180268
1 0.03 0 0 0 0.0180545
0 0.04 0 0 0 0.0197743
0.01 0.04 4.80301e-05 -7.42593e-05 8.84383e-05 0.0197709
0.02 0.04 8.15231e-05 -6.16324e-05 0.000102199 0.0197566
0.03 0.04 8.12741e-05 1.37098e-05 8.24223e-05 0.0197291
0.04 0.04 3.02813e-05 0.000132452 0.000135869 0.0196903
0.05 0.04 -8.26153e-05 0.000279134 0.000291103 0.0196419
0.06 0.04 -0.000264361 0.000441759 0.000514818 0.0195856
0.07 0.04 -0.000518627 0.000611321 0.000801678 0.019523
0.08 0.04 -0.000846568 0.000781284 0.00115199 0.0194554
0.09 0.04 -0.00124744 0.000947096 0.00156624 0.019384
0.1 0.04 -0.00171915 0.00110576 0.00204406 0.0193101
0.11 0.04 -0.00225864 0.00125544 0.0025841 0.0192344
0.12 0.04 -0.00286229 0.00139522 0.00318424 0.019158
0.13 0.04 -0.00352617 0.00152478 0.00384172 0.0190814
0.14 0.04 -0.0042462 0.00164427 0.00455345 0.0190052
0.15 0.04 -0.00501838 0.00175412 0.00531611 0.0189298
0.16 0.04 -0.00583879 0.00185493 0.00612636 0.0188558
0.17 0.04 -0.00670373 0.00194736 0.00698085 0.0187833
0.18 0.04 -0.00760968 0.00203207 0.00787632 0.0187127
0.19 0.04 -0.00855331 0.00210967 0.00880964 0.0186443
0.2 0.04 -0.00953147 0.00218067 0.00977774 0.0185783
0.21 0.04 -0.0105412 0.00224545 0.0107777 0.018515
0.22 0.04 -0.0115794 0.00230426 0.0118065 0.0184547
0.23 0.04 -0.0126434 0.0023572 0.0128613 0.0183976
0.24 0.04 -0.0137302 0.00240422 0.0139391 0.0183441
0.25 0.04 -0.0148367 0.00244516 0.0150369 0.0182944
0.26 0.04 -0.0159599 0.00247968 0.0161514 0.0182491
0.27 0.04 -0.0170965 0.00250737 0.0172794 0.0182083
0.28 0.04 -0.0182429 0.00252771 0.0184172 0.0181726
0.29 0.04 -0.0193954 0.00254009 0.0195611 0.0181423
0.3 0.04 -0.02055 0.00254385 0.0207068 0.0181179
0.31 0.04 -0.0217023 0.00253828 0.0218502 0.0180998
0.32 0.04 -0.0228477 0.00252266 0.0229865 0.0180885
0.33 0.04 -0.0239813 0.00249626 0.0241109 0.0180844
0.34 0.04 -0.0250978 0.00245837 0.025218 0.0180879
0.35 0.04 -0.0261919 0.00240829 0.0263024 0.0180994
0.36 0.04 -0.0272577 0.00234543 0.0273584 0.0181192
0.37 0.04 -0.0282892 0.0022692 0.0283801 0.0181478
0.38 0.04 -0.0292804 0.00217916 0.0293614 0.0181852
0.39 0.04 -0.030225 0.00207493 0.0302961 0.0182319
0.4 0.04 -0.0311165 0.00195625 0.0311779 0.0182878
0.41 0.04 -0.0319485 0.00182301 0.0320005 0.018353
0.42 0.04 -0.0327148 0.00167523 0.0327577 0.0184275
0.43 0.04 -0.033409 0.00151308 0.0334432 0.0185112
0.44 0.04 -0.034025 0.00133689 0.0340512 0.0186038
0.45 0.04 -0.0345568 0.00114718 0.0345759 0.018705
0.46 0.04 -0.034999 0.00094463 0.0350118 0.0188143
0.47 0.04 -0.0353463 0.000730101 0.0353539 0.018931
0.48 0.04 -0.035594 0.00050464 0.0355976 0.0190546
0.49 0.04 -0.0357379 0.000269478 0.0357389 0.0191841
0.5 0.04 -0.0357744 2.60186e-05 0.0357744 0.0193186
0.51 0.04 -0.0357005 -0.00022416 0.0357012 0.0194571
0.52 0.04 -0.035514 -0.000479323 0.0355173 0.0195983
0.53 0.04 -0.0352136 -0.000737584 0.0352213 0.019741
0.54 0.04 -0.0347987 -0.000996926 0.034813 0.0198837
0.55 0.04 -0.0342696 -0.00125522 0.0342926 0.0200251
0.56 0.04 -0.0336275 -0.00151024 0.0336614 0.0201637
0.57 0.04 -0.0328748 -0.00175969 0.0329219 0.0202979
0.58 0.04 -0.0320146 -0.00200126 0.0320771 0.0204262
0.59 0.04 -0.031051 -0.00223259 0.0311312 0.0205471
0.6 0.04 -0.0299892 -0.00245136 0.0300893 0.0206589
0.61 0.04 -0.0288353 -0.00265533 0.0289573 0.0207604
0.62 0.04 -0.0275963 -0.0028423 0.0277423 0.02085
0.63 0.04 -0.0262801 -0.00301023 0.0264519 0.0209266
0.64 0.04 -0.0248953 -0.00315721 0.0250947 0.0209889
0.65 0.04 -0.0234514 -0.00328155 0.0236799 0.0210361
0.66 0.04 -0.0219585 -0.00338176 0.0222174 0.0210673
0.67 0.04 -0.0204273 -0.00345658 0.0207176 0.0210818
0.68 0.04 -0.0188688 -0.00350507 0.0191915 0.0210793
0.69 0.04 -0.0172945 -0.00352655 0.0176504 0.0210596
0.7 0.04 -0.0157161 -0.00352065 0.0161056 0.0210227
0.71 0.04 -0.0141454 -0.00348734 0.0145689 0.0209688
0.72 0.04 -0.0125941 -0.0034269 0.013052 0.0208985
0.73 0.04 -0.0110738 -0.00333997 0.0115665 0.0208124
0.74 0.04 -0.0095957 -0.00322749 0.0101239 0.0207115
0.75 0.04 -0.00817068 -0.00309072 0.0087357 0.0205969
0.76 0.04 -0.00680894 -0.00293123 0.00741308 0.0204699
0.77 0.04 -0.00552003 -0.00275087 0.00616749 0.020332
0.78 0.04 -0.00431268 -0.00255173 0.00501104 0.0201848
0.79 0.04 -0.00319468 -0.00233618 0.00395774 0.02003
0.8 0.04 -0.00217281 -0.00210675 0.00302646 0.0198694
0.81 0.04 -0.00125271 -0.0018662 0.00224766 0.019705
0.82 0.04 -0.000438837 -0.00161741 0.00167589 0.0195387
0.83 0.04 0.000265649 -0.00136344 0.00138908 0.0193723
0.84 0.04 0.000858939 -0.00110748 0.00140153 0.019208
0.85 0.04 0.00134065 -0.00085283 0.00158892 0.0190475
0.86 0.04 0.00171186 -0.000602963 0.00181494 0.0188927
0.87 0.04 0.00197519 -0.000361489 0.00200799 0.0187454
0.88 0.04 0.00213486 -0.000132211 0.00213895 0.0186072
0.89 0.04 0.00219676 8.08284e-05 0.00219825 0.0184798
0.9 0.04 0.00216852 0.000273289 0.00218568 0.0183646
0.91 0.04 0.00205959 0.00044047 0.00210616 0.0182628
0.92 0.04 0.0018813 0.000577249 0.00196786 0.0181755
0.93 0.04 0.00164692 0.000678064 0.00178105 0.0181037
0.94 0.04 0.00137172 0.000736977 0.00155716 0.018048
0.95 0.04 0.00107289 0.000747912 0.00130785 0.0180089
0.96 0.04 0.000769465 0.000705232 0.00104376 0.0179863
0.97 0.04 0.000482289 0.000604889 0.000773624 0.0179805
0.98 0.04 0.000232867 0.000446533 0.000503605 0.0179903
0.99 0.04 6.56823e-05 0.00023651 0.000245461 0.0180334
1 0.04 0 0 0 0.0180679
0 0.05 0 0 0 0.0198264
0.01 0.05 3.20011e-05 -7.47888e-05 8.13476e-05 0.0198196
0.02 0.05 3.61303e-05 -3.29663e-05 4.89099e-05 0.0198
0.03 0.05 -9.87062e-06 9.19303e-05 9.24587e-05 0.0197691
0.04 0.05 -0.000121666 0.000274034 0.000299829 0.0197286
0.05 0.05 -0.000309683 0.000492997 0.000582194 0.01968
0.06 0.05 -0.000580288 0.000733073 0.000934949 0.0196247
0.07 0.05 -0.000936677 0.000982347 0.00135734 0.0195639
0.08 0.05 -0.00137958 0.00123206 0.00184965 0.019499
0.09 0.05 -0.00190787 0.001476 0.00241217 0.0194309
0.1 0.05 -0.00251901 0.00170999 0.00304458 0.0193607
0.11 0.05 -0.00320954 0.00193141 0.00374586 0.019289
0.12 0.05 -0.00397535 0.00213885 0.00451421 0.0192165
0.13 0.05 -0.00481201 0.00233177 0.0053472 0.019144
0.14 0.05 -0.00571491 0.00251026 0.00624192 0.0190717
0.15 0.05 -0.00667947 0.00267482 0.00719514 0.0190002
0.16 0.05 -0.00770122 0.00282617 0.00820341 0.0189297
0.17 0.05 -0.00877582 0.00296518 0.00926323 0.0188606
0.18 0.05 -0.00989916 0.00309271 0.010371 0.0187931
0.19 0.05 -0.0110673 0.00320953 0.0115233 0.0187275
0.2 0.05 -0.0122764 0.00331631 0.0127164 0.018664
0.21 0.05 -0.0135227 0.00341354 0.0139469 0.0186028
0.22 0.05 -0.0148028 0.0035015 0.0152113 0.0185442
0.23 0.05 -0.0161129 0.0035803 0.0165059 0.0184886
0.24 0.05 -0.0174494 0.00364983 0.017827 0.0184361
0.25 0.05 -0.0188085 0.00370978 0.0191709 0.0183871
0.26 0.05 -0.0201863 0.00375968 0.0205335 0.018342
0.27 0.05 -0.0215787 0.00379889 0.0219105 0.0183011
0.28 0.05 -0.0229811 0.00382662 0.0232975 0.0182648
0.29 0.05 -0.0243889 0.003842 0.0246897 0.0182335
0.3 0.05 -0.0257971 0.00384405 0.0260819 0.0182077
0.31 0.05 -0.0272003 0.00383175 0.0274689 0.0181877
0.32 0.05 -0.0285928 0.00380406 0.0288448 0.018174
0.33 0.05 -0.0299687 0.00375993 0.0302036 0.0181671
0.34 0.05 -0.0313215 0.00369835 0.0315391 0.0181673
0.35 0.05 -0.0326445 0.00361837 0.0328445 0.0181751
0.36 0.05 -0.033931 0.00351911 0.034113 0.0181908
0.37 0.05 -0.0351737 0.00339981 0.0353376 0.0182146
0.38 0.05 -0.0363653 0.00325984 0.0365111 0.018247
0.39 0.05 -0.0374983 0.00309872 0.0376261 0.0182882
0.4 0.05 -0.0385652 0.00291616 0.0386753 0.0183381
0.41 0.05 -0.0395586 0.00271204 0.0396514 0.0183971
0.42 0.05 -0.0404708 0.00248648 0.0405471 0.018465
0.43 0.05 -0.0412947 0.00223978 0.0413554 0.0185417
0.44 0.05 -0.0420231 0.00197254 0.0420694 0.0186271
0.45 0.05 -0.0426492 0.00168556 0.0426825 0.0187207
0.46 0.05 -0.0431668 0.00137991 0.0431888 0.0188223
0.47 0.05 -0.0435697 0.00105693 0.0435825 0.0189312
0.48 0.05 -0.0438528 0.000718227 0.0438587 0.0190468
0.49 0.05 -0.0440113 0.000365642 0.0440128 0.0191683
0.5 0.05 -0.0440411 1.287e-06 0.0440411 0.0192948
0.51 0.05 -0.0439391 -0.000372489 0.0439407 0.0194253
0.52 0.05 -0.0437031 -0.000753112 0.0437095 0.0195585
0.53 0.05 -0.0433314 -0.0011378 0.0433464 0.0196935
0.54 0.05 -0.0428238 -0.00152359 0.0428509 0.0198287
0.55 0.05 -0.0421808 -0.00190737 0.0422239 0.0199628
0.56 0.05 -0.0414042 -0.00228588 0.0414672 0.0200943
0.57 0.05 -0.0404966 -0.00265579 0.0405836 0.0202218
0.58 0.05 -0.0394619 -0.00301372 0.0395768 0.0203438
0.59 0.05 -0.0383052 -0.00335628 0.0384519 0.0204587
0.6 0.05 -0.0370325 -0.0036801 0.0372149 0.0205651
0.61 0.05 -0.0356509 -0.00398193 0.0358726 0.0206615
0.62 0.05 -0.0341688 -0.00425861 0.0344331 0.0207467
0.63 0.05 -0.0325952 -0.00450718 0.0329054 0.0208193
0.64 0.05 -0.0309404 -0.00472491 0.0312991 0.0208783
0.65 0.05 -0.0292152 -0.00490933 0.0296248 0.0209226
0.66 0.05 -0.0274315 -0.0050583 0.0278939 0.0209515
0.67 0.05 -0.0256014 -0.00517002 0.0261183 0.0209644
0.68 0.05 -0.0237381 -0.00524309 0.0243102 0.0209608
0.69 0.05 -0.0218546 -0.00527654 0.0224826 0.0209406
0.7 0.05 -0.0199647 -0.00526982 0.0206485 0.0209038
0.71 0.05 -0.0180819 -0.00522287 0.018821 0.0208507
0.72 0.05 -0.0162199 -0.00513608 0.0170136 0.0207817
0.73 0.05 -0.0143921 -0.00501035 0.0152393 0.0206975
0.74 0.05 -0.0126118 -0.00484701 0.0135111 0.020599
0.75 0.05 -0.0108915 -0.00464788 0.0118418 0.0204874
0.76 0.05 -0.00924327 -0.0044152 0.0102436 0.0203639
0.77 0.05 -0.00767832 -0.00415164 0.00872885 0.02023
0.78 0.05 -0.00620697 -0.00386024 0.00730944 0.0200872
0.79 0.05 -0.00483846 -0.00354441 0.00599779 0.0199372
0.8 0.05 -0.00358089 -0.00320787 0.00480761 0.0197819