Variables = x, y, u, v, umag, p
ZONE I= 51 J= 51 F=point
0 0 -9.80648e-06 9.70218e-06 1.37949e-05 0.0117056
0.02 0 0 0 0 0.0155953
0.04 0 0 -1.69407e-21 1.69407e-21 0.0155355
0.06 0 0 0 0 0.0154162
0.08 0 8.47033e-22 0 8.47033e-22 0.0152604
0.1 0 0 0 0 0.0150875
0.12 0 0 0 0 0.0149096
0.14 0 0 0 0 0.0147343
0.16 0 -5.42101e-20 0 5.42101e-20 0.0145664
0.18 0 0 0 0 0.0144085
0.2 0 1.0842e-19 -6.77626e-21 1.08632e-19 0.0142628
0.22 0 1.0842e-19 -6.77626e-21 1.08632e-19 0.0141312
0.24 0 -1.0842e-19 0 1.0842e-19 0.0140161
0.26 0 0 0 0 0.01392
0.28 0 -2.1684e-19 0 2.1684e-19 0.0138468
0.3 0 0 -6.77626e-21 6.77626e-21 0.0138022
0.32 0 0 -6.77626e-21 6.77626e-21 0.0137886
0.34 0 2.1684e-19 -6.77626e-21 2.16946e-19 0.013807
0.36 0 2.1684e-19 0 2.1684e-19 0.0138647
0.38 0 0 -6.77626e-21 6.77626e-21 0.0139677
0.4 0 4.33681e-19 -6.77626e-21 4.33734e-19 0.0141178
0.42 0 0 0 0 0.0143168
0.44 0 0 6.77626e-21 6.77626e-21 0.0145653
0.46 0 0 3.38813e-21 3.38813e-21 0.014862
0.48 0 0 -3.38813e-21 3.38813e-21 0.0152033
0.5 0 -4.33681e-19 -1.69407e-21 4.33684e-19 0.0155826
0.52 0 4.33681e-19 0 4.33681e-19 0.0159932
0.54 0 -4.33681e-19 0 4.33681e-19 0.0164274
0.56 0 0 0 0 0.016871
0.58 0 -4.33681e-19 -6.77626e-21 4.33734e-19 0.0173075
0.6 0 4.33681e-19 0 4.33681e-19 0.0177221
0.62 0 0 0 0 0.0181
0.64 0 -2.1684e-19 0 2.1684e-19 0.0184264
0.66 0 2.1684e-19 1.35525e-20 2.17264e-19 0.018688
0.68 0 0 1.35525e-20 1.35525e-20 0.0188719
0.7 0 2.1684e-19 1.35525e-20 2.17264e-19 0.0189694
0.72 0 1.0842e-19 1.35525e-20 1.09264e-19 0.0189839
0.74 0 0 0 0 0.01892
0.76 0 -5.42101e-20 1.35525e-20 5.58785e-20 0.0187753
0.78 0 0 6.77626e-21 6.77626e-21 0.0185566
0.8 0 1.35525e-20 0 1.35525e-20 0.0182804
0.82 0 0 0 0 0.017963
0.84 0 0 -3.38813e-21 3.38813e-21 0.017622
0.86 0 0 1.69407e-21 1.69407e-21 0.0172773
0.88 0 -2.71051e-20 0 2.71051e-20 0.0169501
0.9 0 -2.71051e-20 1.69407e-21 2.71579e-20 0.0166609
0.92 0 0 0 0 0.0164302
0.94 0 0 -3.38813e-21 3.38813e-21 0.0162758
0.96 0 6.77626e-21 3.38813e-21 7.57609e-21 0.0161995
0.98 0 0 0 0 0.0162217
1 0 6.19007e-06 -5.1238e-06 8.03557e-06 0.0121979
0 0.02 0 0 0 0.015619
0.02 0.02 8.2357e-05 -8.14793e-05 0.000115851 0.0156065
0.04 0.02 0.000121941 -3.86744e-05 0.000127927 0.0155502
0.06 0.02 4.70645e-05 5.44584e-05 7.19777e-05 0.0154418
0.08 0.02 -0.000188 0.000158872 0.000246139 0.0153012
0.1 0.02 -0.000585862 0.000258507 0.000640359 0.0151445
0.12 0.02 -0.00113249 0.000347087 0.00118448 0.0149819
0.14 0.02 -0.00180932 0.000422996 0.00185811 0.0148204
0.16 0.02 -0.00259773 0.000487297 0.00264304 0.0146646
0.18 0.02 -0.00348154 0.000542007 0.00352348 0.0145174
0.2 0.02 -0.00444767 0.0005893 0.00448654 0.0143808
0.22 0.02 -0.00548529 0.000630844 0.00552145 0.014257
0.24 0.02 -0.00658494 0.00066756 0.00661869 0.0141484
0.26 0.02 -0.00773774 0.000699637 0.0077693 0.0140576
0.28 0.02 -0.00893437 0.00072673 0.00896388 0.0139879
0.3 0.02 -0.0101607 0.000747589 0.0101882 0.013945
0.32 0.02 -0.0113989 0.000758756 0.0114241 0.0139312
0.34 0.02 -0.0126355 0.000757096 0.0126582 0.0139476
0.36 0.02 -0.0138554 0.000742214 0.0138753 0.0140008
0.38 0.02 -0.0150334 0.000713059 0.0150503 0.0140963
0.4 0.02 -0.0161414 0.000667475 0.0161551 0.014236
0.42 0.02 -0.0171521 0.00060401 0.0171627 0.0144213
0.44 0.02 -0.0180369 0.000521617 0.0180445 0.014653
0.46 0.02 -0.0187669 0.000419649 0.0187716 0.0149295
0.48 0.02 -0.0193146 0.000298628 0.0193169 0.0152474
0.5 0.02 -0.0196551 0.000159842 0.0196557 0.0156017
0.52 0.02 -0.0197664 8.12305e-06 0.0197664 0.0159858
0.54 0.02 -0.0196298 -0.000150394 0.0196304 0.0163917
0.56 0.02 -0.0192325 -0.000313629 0.0192351 0.0168064
0.58 0.02 -0.0185725 -0.000478426 0.0185787 0.0172151
0.6 0.02 -0.0176584 -0.000638209 0.01767 0.0176035
0.62 0.02 -0.0165072 -0.000785969 0.0165259 0.0179574
0.64 0.02 -0.0151441 -0.000915096 0.0151717 0.0182631
0.66 0.02 -0.0136031 -0.0010196 0.0136413 0.0185083
0.68 0.02 -0.0119284 -0.00109427 0.0119785 0.0186813
0.7 0.02 -0.0101772 -0.00113375 0.0102401 0.0187737
0.72 0.02 -0.00840595 -0.00113319 0.00848198 0.0187883
0.74 0.02 -0.00665849 -0.00109199 0.00674743 0.0187294
0.76 0.02 -0.0049843 -0.00101418 0.00508643 0.0185955
0.78 0.02 -0.00344336 -0.00090477 0.00356024 0.0183933
0.8 0.02 -0.00208583 -0.000768847 0.00222302 0.0181381
0.82 0.02 -0.000948138 -0.00061277 0.00112892 0.0178452
0.84 0.02 -5.81496e-05 -0.000444574 0.000448361 0.017531
0.86 0.02 0.000567479 -0.000273516 0.000629956 0.0172139
0.88 0.02 0.0009281 -0.000108641 0.000934437 0.0169137
0.9 0.02 0.00103945 4.1184e-05 0.00104027 0.0166485
0.92 0.02 0.000935108 0.000165022 0.000949557 0.016436
0.94 0.02 0.000674895 0.000245209 0.00071806 0.0162919
0.96 0.02 0.000330483 0.000256614 0.000418413 0.0162163
0.98 0.02 6.12849e-05 0.000164275 0.000175334 0.016241
1 0.02 0 0 0 0.0162879
0 0.04 0 0 0 0.0156785
0.02 0.04 3.7418e-05 -0.00012084 0.000126501 0.0156607
0.04 0.04 -5.09268e-05 4.36098e-05 6.70474e-05 0.0156024
0.06 0.04 -0.000365935 0.000328004 0.000491421 0.0155066
0.08 0.04 -0.000954756 0.000644338 0.00115184 0.0153873
0.1 0.04 -0.00181973 0.000950319 0.00205293 0.0152544
0.12 0.04 -0.00294285 0.00122685 0.00318834 0.0151154
0.14 0.04 -0.00429699 0.00146807 0.00454085 0.014976
0.16 0.04 -0.00585275 0.00167561 0.00608788 0.0148402
0.18 0.04 -0.00758304 0.00185398 0.00780639 0.0147105
0.2 0.04 -0.0094643 0.00200813 0.009675 0.014589
0.22 0.04 -0.0114757 0.00214186 0.0116738 0.0144778
0.24 0.04 -0.0135977 0.00225701 0.0137837 0.0143791
0.26 0.04 -0.0158108 0.00235333 0.015985 0.0142956
0.28 0.04 -0.0180942 0.00242877 0.0182565 0.0142301
0.3 0.04 -0.0204209 0.0024794 0.0205708 0.0141874
0.32 0.04 -0.0227582 0.00249734 0.0228948 0.0141706
0.34 0.04 -0.0250755 0.002475 0.0251973 0.0141809
0.36 0.04 -0.0273394 0.00240925 0.0274453 0.0142234
0.38 0.04 -0.0295055 0.00229568 0.0295947 0.0143032
0.4 0.04 -0.0315241 0.00212836 0.0315958 0.0144218
0.42 0.04 -0.0333457 0.00190353 0.0334 0.0145809
0.44 0.04 -0.0349203 0.00161964 0.0349578 0.0147811
0.46 0.04 -0.0361978 0.00127696 0.0362204 0.0150219
0.48 0.04 -0.0371313 0.000878919 0.0371417 0.0153008
0.5 0.04 -0.0376778 0.000433153 0.0376803 0.0156143
0.52 0.04 -0.0378015 -4.86276e-05 0.0378015 0.0159556
0.54 0.04 -0.0374772 -0.000553233 0.0374813 0.0163152
0.56 0.04 -0.03669 -0.00106913 0.0367056 0.0166839
0.58 0.04 -0.0354385 -0.00158247 0.0354738 0.0170491
0.6 0.04 -0.0337386 -0.00207503 0.0338024 0.0173972
0.62 0.04 -0.0316224 -0.0025274 0.0317232 0.017715
0.64 0.04 -0.029136 -0.00292041 0.029282 0.01799
0.66 0.04 -0.0263399 -0.00323636 0.026538 0.0182113
0.68 0.04 -0.0233097 -0.00345996 0.0235651 0.0183682
0.7 0.04 -0.020139 -0.00357773 0.0204543 0.018453
0.72 0.04 -0.0169222 -0.00357998 0.0172968 0.0184674
0.74 0.04 -0.0137412 -0.00346555 0.0141714 0.0184158
0.76 0.04 -0.0106836 -0.00324158 0.0111645 0.0182975
0.78 0.04 -0.00784752 -0.0029196 0.00837303 0.0181192
0.8 0.04 -0.0053177 -0.00251462 0.00588228 0.0178948
0.82 0.04 -0.00315928 -0.00204599 0.00376392 0.0176376
0.84 0.04 -0.00142237 -0.00153743 0.00209447 0.0173625
0.86 0.04 -0.000136366 -0.00101599 0.0010251 0.0170864
0.88 0.04 0.000697136 -0.000510124 0.000863844 0.0168264
0.9 0.04 0.00110381 -5.04348e-05 0.00110496 0.0165971
0.92 0.04 0.00113666 0.000327194 0.00118281 0.0164114
0.94 0.04 0.00088603 0.000576859 0.00105727 0.0162826
0.96 0.04 0.000459231 0.000641149 0.000788647 0.016209
0.98 0.04 9.39443e-05 0.000450761 0.000460447 0.0162419
1 0.04 0 0 0 0.0163
0 0.06 0 0 0 0.0158004
0.02 0.06 -6.92928e-05 -3.54083e-05 7.78154e-05 0.0157686
0.04 0.06 -0.000378584 0.000367494 0.000527615 0.0156919
0.06 0.06 -0.00103884 0.000958271 0.00141332 0.0155938
0.08 0.06 -0.00207133 0.0016003 0.00261751 0.0154813
0.1 0.06 -0.00346905 0.00222122 0.00411923 0.0153597
0.12 0.06 -0.00520842 0.00278625 0.00590684 0.015234
0.14 0.06 -0.00725562 0.0032842 0.00796429 0.0151087
0.16 0.06 -0.00957388 0.00371659 0.01027 0.0149862
0.18 0.06 -0.0121284 0.00409024 0.0127995 0.0148684
0.2 0.06 -0.0148874 0.00441279 0.0155276 0.0147568
0.22 0.06 -0.0178213 0.00468996 0.0184281 0.0146531
0.24 0.06 -0.020901 0.00492392 0.0214732 0.0145594
0.26 0.06 -0.0240966 0.00511292 0.0246331 0.014478
0.28 0.06 -0.0273752 0.00525181 0.0278744 0.0144117
0.3 0.06 -0.030698 0.00533233 0.0311577 0.0143642
0.32 0.06 -0.034019 0.00534134 0.0344358 0.0143395
0.34 0.06 -0.0372896 0.00526468 0.0376594 0.0143394
0.36 0.06 -0.0404593 0.00509321 0.0407786 0.0143669
0.38 0.06 -0.0434687 0.00481861 0.0437349 0.0144273
0.4 0.06 -0.046251 0.00443147 0.0464628 0.0145236
0.42 0.06 -0.0487383 0.00392583 0.0488962 0.0146579
0.44 0.06 -0.0508639 0.0033012 0.0509709 0.0148311
0.46 0.06 -0.0525628 0.00256215 0.0526252 0.0150437
0.48 0.06 -0.0537739 0.00171807 0.0538014 0.0152941
0.5 0.06 -0.0544441 0.000784517 0.0544497 0.0155781
0.52 0.06 -0.0545316 -0.000218551 0.0545321 0.0158889
0.54 0.06 -0.0540092 -0.00126735 0.0540241 0.0162182
0.56 0.06 -0.0528623 -0.0023337 0.0529138 0.0165581
0.58 0.06 -0.0510923 -0.00338617 0.0512044 0.0168971
0.6 0.06 -0.0487224 -0.00438954 0.0489197 0.0172221
0.62 0.06 -0.045796 -0.00530665 0.0461024 0.0175207
0.64 0.06 -0.0423748 -0.006101 0.0428118 0.0177805
0.66 0.06 -0.0385383 -0.00673877 0.0391231 0.0179906
0.68 0.06 -0.0343844 -0.00719087 0.0351282 0.0181408
0.7 0.06 -0.0300305 -0.00743294 0.0309367 0.0182229
0.72 0.06 -0.0255987 -0.00744909 0.0266605 0.0182381
0.74 0.06 -0.0211996 -0.00723722 0.0224009 0.0181909
0.76 0.06 -0.0169495 -0.00680743 0.0182654 0.0180809
0.78 0.06 -0.0129743 -0.00617912 0.0143706 0.0179144
0.8 0.06 -0.00938502 -0.00538112 0.0108183 0.0177049
0.82 0.06 -0.00627018 -0.00445159 0.00768973 0.0174651
0.84 0.06 -0.00369882 -0.00343675 0.00504901 0.0172089
0.86 0.06 -0.0017125 -0.00238892 0.00293932 0.0169526
0.88 0.06 -0.000317733 -0.00136571 0.00140219 0.0167118
0.9 0.06 0.000512807 -0.000431237 0.000670027 0.0164988
0.92 0.06 0.000840455 0.000342288 0.000907483 0.016325
0.94 0.06 0.000769976 0.000872446 0.00116363 0.0162025
0.96 0.06 0.000426001 0.00106266 0.00114487 0.0161286
0.98 0.06 8.32583e-05 0.000806035 0.000810324 0.0161642
1 0.06 0 0 0 0.0162268
0 0.08 0 0 0 0.015963
0.02 0.08 -0.000204273 0.000242937 0.000317405 0.0159106
0.04 0.08 -0.000787164 0.00101929 0.00128786 0.0158047
0.06 0.08 -0.00185936 0.00202215 0.00274706 0.0156953
0.08 0.08 -0.00339876 0.00307891 0.00458598 0.0155813
0.1 0.08 -0.0053805 0.00409294 0.00676032 0.0154638
0.12 0.08 -0.0077704 0.0050169 0.00924924 0.015346
0.14 0.08 -0.0105267 0.00583526 0.0120359 0.0152299
0.16 0.08 -0.0136064 0.00654946 0.0151006 0.0151164
0.18 0.08 -0.0169685 0.00716822 0.0184204 0.0150064
0.2 0.08 -0.0205743 0.00770133 0.0219684 0.0149009
0.22 0.08 -0.0243867 0.00815561 0.0257143 0.0148008
0.24 0.08 -0.0283682 0.00853247 0.0296236 0.0147079
0.26 0.08 -0.0324788 0.00882725 0.0336569 0.0146241
0.28 0.08 -0.0366744 0.00902992 0.0377697 0.0145519
0.3 0.08 -0.0409054 0.00912619 0.0419111 0.0144942
0.32 0.08 -0.0451142 0.0090976 0.0460224 0.0144553
0.34 0.08 -0.0492366 0.00892298 0.0500386 0.014439
0.36 0.08 -0.0532051 0.00858518 0.0538933 0.0144478
0.38 0.08 -0.0569472 0.0080724 0.0575165 0.014486
0.4 0.08 -0.0603839 0.00737462 0.0608326 0.0145583
0.42 0.08 -0.063433 0.00648577 0.0637637 0.0146678
0.44 0.08 -0.0660145 0.00540701 0.0662356 0.0148159
0.46 0.08 -0.0680536 0.00414761 0.0681799 0.0150025
0.48 0.08 -0.0694823 0.00272433 0.0695356 0.0152262
0.5 0.08 -0.0702422 0.00116119 0.0702518 0.0154837
0.52 0.08 -0.0702887 -0.000510171 0.0702905 0.0157696
0.54 0.08 -0.0695921 -0.00225004 0.0696284 0.0160771
0.56 0.08 -0.0681384 -0.00401132 0.0682564 0.0163977
0.58 0.08 -0.0659329 -0.00574239 0.0661825 0.0167206
0.6 0.08 -0.0630041 -0.00738735 0.0634357 0.0170329
0.62 0.08 -0.0594032 -0.008888 0.0600644 0.017322
0.64 0.08 -0.0552023 -0.0101877 0.0561345 0.0175757
0.66 0.08 -0.0504937 -0.011234 0.0517283 0.0177827
0.68 0.08 -0.0453889 -0.0119819 0.0469438 0.0179331
0.7 0.08 -0.040022 -0.0123942 0.0418972 0.0180178
0.72 0.08 -0.034535 -0.012447 0.0367096 0.0180367
0.74 0.08 -0.0290609 -0.0121359 0.0314932 0.0179946
0.76 0.08 -0.0237377 -0.0114744 0.0263655 0.0178911
0.78 0.08 -0.0187136 -0.0104902 0.0214533 0.0177321
0.8 0.08 -0.0141223 -0.0092273 0.0168696 0.0175307
0.82 0.08 -0.0100735 -0.0077454 0.012707 0.0172996
0.84 0.08 -0.00665372 -0.00611704 0.00903826 0.0170526
0.86 0.08 -0.00391835 -0.00442508 0.00591056 0.0168049
0.88 0.08 -0.00188418 -0.00276256 0.00334393 0.0165708
0.9 0.08 -0.000529067 -0.00123252 0.00134127 0.0163623
0.92 0.08 0.000209326 5.23799e-05 0.00021578 0.0161903
0.94 0.08 0.000440192 0.000968345 0.0010637 0.0160651
0.96 0.08 0.000297492 0.00137406 0.00140589 0.0159847
0.98 0.08 5.92325e-05 0.00112009 0.00112165 0.0160049
1 0.08 0 0 0 0.0160559
0 0.1 0 0 0 0.0161442
0.02 0.1 -0.000352895 0.000744434 0.000823843 0.0160681
0.04 0.1 -0.00123784 0.0020468 0.00239199 0.0159274
0.06 0.1 -0.00276027 0.00357156 0.00451389 0.0158019
0.08 0.1 -0.00484531 0.00512587 0.00705348 0.0156808
0.1 0.1 -0.00744388 0.00659927 0.00994795 0.0155625
0.12 0.1 -0.0105063 0.0079381 0.013168 0.0154479
0.14 0.1 -0.0139809 0.00912523 0.0166954 0.0153364
0.16 0.1 -0.0178179 0.0101632 0.0205126 0.0152278
0.18 0.1 -0.0219702 0.011063 0.0245984 0.0151215
0.2 0.1 -0.0263932 0.0118357 0.0289255 0.0150175
0.22 0.1 -0.0310432 0.012488 0.0334609 0.014916
0.24 0.1 -0.0358755 0.0130193 0.0381648 0.0148181
0.26 0.1 -0.0408416 0.013421 0.0429902 0.0147257
0.28 0.1 -0.0458876 0.0136769 0.0478824 0.0146414
0.3 0.1 -0.0509527 0.0137659 0.0527795 0.0145682
0.32 0.1 -0.0559691 0.0136637 0.0576128 0.01451
0.34 0.1 -0.0608608 0.0133445 0.0623066 0.0144721
0.36 0.1 -0.0655453 0.0127841 0.0667804 0.0144587
0.38 0.1 -0.0699376 0.0119651 0.0709538 0.0144726
0.4 0.1 -0.0739501 0.0108769 0.0747458 0.0145182
0.42 0.1 -0.0774928 0.00951542 0.0780748 0.0145997
0.44 0.1 -0.0804773 0.00788405 0.0808626 0.0147194
0.46 0.1 -0.0828221 0.00599651 0.0830389 0.0148781
0.48 0.1 -0.0844545 0.00387811 0.0845435 0.0150753
0.5 0.1 -0.0853128 0.00156488 0.0853271 0.0153091
0.52 0.1 -0.0853489 -0.000896096 0.0853536 0.0155751
0.54 0.1 -0.0845316 -0.00344694 0.0846019 0.0158667
0.56 0.1 -0.0828475 -0.006021 0.083066 0.0161754
0.58 0.1 -0.0803029 -0.00854551 0.0807563 0.0164909
0.6 0.1 -0.0769282 -0.0109425 0.0777025 0.0168001
0.62 0.1 -0.0727781 -0.013131 0.0739532 0.0170897
0.64 0.1 -0.0679303 -0.0150318 0.0695736 0.017347
0.66 0.1 -0.0624838 -0.0165717 0.064644 0.0175601
0.68 0.1 -0.0565584 -0.0176871 0.0592595 0.0177188
0.7 0.1 -0.0502985 -0.0183265 0.0535331 0.0178124
0.72 0.1 -0.0438621 -0.018455 0.0475864 0.0178396
0.74 0.1 -0.0373997 -0.0180634 0.0415334 0.0178056
0.76 0.1 -0.0310671 -0.0171679 0.0354951 0.0177098
0.78 0.1 -0.0250325 -0.015805 0.0296044 0.0175571
0.8 0.1 -0.0194514 -0.0140338 0.0239855 0.0173605
0.82 0.1 -0.014455 -0.0119364 0.0187463 0.0171328
0.84 0.1 -0.0101488 -0.00961436 0.0139798 0.0168878
0.86 0.1 -0.00660565 -0.00718535 0.00976032 0.0166402
0.88 0.1 -0.00385676 -0.00478211 0.00614355 0.0164041
0.9 0.1 -0.0018898 -0.00255008 0.003174 0.0161913
0.92 0.1 -0.000647728 -0.000645725 0.000914611 0.0160121
0.94 0.1 -2.53352e-05 0.000761592 0.000762013 0.0158752
0.96 0.1 0.000116087 0.00148358 0.00148811 0.0157817
0.98 0.1 3.49431e-05 0.00132547 0.00132594 0.0157729
1 0.1 0 0 0 0.0158006
0 0.12 0 0 0 0.0163254
0.02 0.12 -0.000507141 0.00148122 0.00156563 0.016224
0.04 0.12 -0.00170683 0.00347404 0.00387068 0.016046
0.06 0.12 -0.00369756 0.005636 0.00674065 0.0159012
0.08 0.12 -0.00634682 0.00776934 0.0100322 0.0157696
0.1 0.12 -0.00957702 0.00976188 0.0136753 0.0156468
0.12 0.12 -0.0133197 0.0115613 0.0176374 0.015531
0.14 0.12 -0.0175112 0.0131534 0.021901 0.0154198
0.16 0.12 -0.0220941 0.0145445 0.0264517 0.015311
0.18 0.12 -0.0270154 0.0157484 0.0312705 0.0152031
0.2 0.12 -0.0322248 0.0167778 0.0363309 0.015095
0.22 0.12 -0.037673 0.0176379 0.0415975 0.0149865
0.24 0.12 -0.0433082 0.0183252 0.0470257 0.0148782
0.26 0.12 -0.0490749 0.0188268 0.0525623 0.0147717
0.28 0.12 -0.0549107 0.0191208 0.0581446 0.01467
0.3 0.12 -0.0607453 0.0191793 0.0637012 0.0145765
0.32 0.12 -0.0665008 0.0189711 0.0691539 0.0144949
0.34 0.12 -0.0720928 0.018465 0.0744199 0.0144297
0.36 0.12 -0.0774302 0.0176318 0.0794124 0.0143863
0.38 0.12 -0.0824182 0.0164474 0.0840433 0.0143692
0.4 0.12 -0.0869611 0.0148984 0.0882281 0.0143826
0.42 0.12 -0.0909648 0.0129833 0.0918867 0.0144306
0.44 0.12 -0.0943371 0.0107108 0.0949432 0.0145178
0.46 0.12 -0.096991 0.00810186 0.0973288 0.014647
0.48 0.12 -0.098849 0.00519159 0.0989852 0.0148183
0.5 0.12 -0.0998463 0.00202987 0.099867 0.0150306
0.52 0.12 -0.0999324 -0.00132001 0.0999411 0.01528
0.54 0.12 -0.0990734 -0.00478219 0.0991887 0.0155604
0.56 0.12 -0.0972541 -0.00826979 0.0976051 0.0158634
0.58 0.12 -0.0944791 -0.0116881 0.0951994 0.0161787
0.6 0.12 -0.090776 -0.0149367 0.0919966 0.0164936
0.62 0.12 -0.0861978 -0.0179112 0.0880391 0.0167936
0.64 0.12 -0.0808227 -0.0205084 0.0833841 0.0170649
0.66 0.12 -0.0747513 -0.0226321 0.0781023 0.0172946
0.68 0.12 -0.0681071 -0.0241979 0.0722781 0.0174714
0.7 0.12 -0.0610405 -0.0251375 0.0660139 0.0175834
0.72 0.12 -0.0537208 -0.0254012 0.0594234 0.0176269
0.74 0.12 -0.0463154 -0.0249701 0.0526177 0.0176066
0.76 0.12 -0.0389966 -0.023862 0.0457179 0.0175225
0.78 0.12 -0.0319506 -0.0221213 0.0388612 0.0173784
0.8 0.12 -0.0253563 -0.0198206 0.0321838 0.0171862
0.82 0.12 -0.0193689 -0.0170652 0.0258142 0.0169594
0.84 0.12 -0.0141167 -0.0139872 0.0198727 0.0167118
0.86 0.12 -0.00969403 -0.010742 0.0144694 0.0164581
0.88 0.12 -0.00615136 -0.00750458 0.00970351 0.0162129
0.9 0.12 -0.00349086 -0.00446671 0.005669 0.0159883
0.92 0.12 -0.00166628 -0.00183298 0.00247716 0.0157941
0.94 0.12 -0.000581385 0.000178189 0.000608079 0.0156384
0.96 0.12 -9.65259e-05 0.00133234 0.00133583 0.0155258
0.98 0.12 1.25231e-05 0.00138888 0.00138894 0.0154793
1 0.12 0 0 0 0.015478
0 0.14 0 0 0 0.0164897
0.02 0.14 -0.000661952 0.00245587 0.00254351 0.0163629
0.04 0.14 -0.00217812 0.00530714 0.00573672 0.0161462
0.06 0.14 -0.00463991 0.00822241 0.00944123 0.01598
0.08 0.14 -0.00785544 0.0110141 0.0135284 0.0158353
0.1 0.14 -0.0117163 0.0135803 0.0179359 0.0157049
0.12 0.14 -0.0161332 0.0158783 0.0226363 0.0155846
0.14 0.14 -0.0210291 0.0179027 0.0276175 0.0154697
0.16 0.14 -0.0263379 0.0196665 0.0328703 0.0153565
0.18 0.14 -0.0320001 0.0211885 0.0383791 0.0152423
0.2 0.14 -0.0379606 0.0224832 0.0441192 0.0151251
0.22 0.14 -0.0441647 0.0235555 0.0500538 0.0150045
0.24 0.14 -0.0505545 0.0243983 0.0561341 0.0148809
0.26 0.14 -0.0570676 0.0249928 0.0623005 0.0147551
0.28 0.14 -0.0636352 0.025311 0.0684842 0.0146296
0.3 0.14 -0.0701807 0.0253179 0.0746078 0.0145077
0.32 0.14 -0.0766195 0.0249742 0.080587 0.0143937
0.34 0.14 -0.0828606 0.0242418 0.0863339 0.0142925
0.36 0.14 -0.0888079 0.0230869 0.0917598 0.0142098
0.38 0.14 -0.0943609 0.0214827 0.0967754 0.0141527
0.4 0.14 -0.0994169 0.0194129 0.101294 0.0141273
0.42 0.14 -0.103877 0.016877 0.105239 0.0141379
0.44 0.14 -0.107648 0.0138915 0.10854 0.0141892
0.46 0.14 -0.11064 0.0104871 0.111136 0.014286
0.48 0.14 -0.112771 0.00670944 0.112971 0.0144301
0.5 0.14 -0.113974 0.00262098 0.114005 0.0146207
0.52 0.14 -0.114194 -0.0016994 0.114207 0.014855
0.54 0.14 -0.113393 -0.00615816 0.11356 0.0151273
0.56 0.14 -0.111549 -0.0106486 0.112056 0.0154295
0.58 0.14 -0.108662 -0.0150538 0.1097 0.0157512
0.6 0.14 -0.104753 -0.0192505 0.106507 0.0160798
0.62 0.14 -0.0998678 -0.0231107 0.102507 0.0163998
0.64 0.14 -0.0940793 -0.026506 0.0977419 0.0166959
0.66 0.14 -0.0874856 -0.0293149 0.0922664 0.0169537
0.68 0.14 -0.0802096 -0.0314295 0.0861475 0.0171603
0.7 0.14 -0.0724029 -0.0327609 0.0794699 0.0173031
0.72 0.14 -0.0642425 -0.0332411 0.0723331 0.0173745
0.74 0.14 -0.0559133 -0.0328366 0.0648425 0.0173767
0.76 0.14 -0.0476047 -0.0315613 0.0571167 0.0173119
0.78 0.14 -0.0395197 -0.0294653 0.0492952 0.0171822
0.8 0.14 -0.0318628 -0.0266338 0.0415283 0.0169976
0.82 0.14 -0.0248183 -0.0231937 0.0339691 0.0167723
0.84 0.14 -0.0185419 -0.0193093 0.0267703 0.0165204
0.86 0.14 -0.0131545 -0.0151751 0.020083 0.016257
0.88 0.14 -0.00873116 -0.0110115 0.014053 0.0159973
0.9 0.14 -0.0052944 -0.00706022 0.00882482 0.0157545
0.92 0.14 -0.0028139 -0.00357822 0.00455211 0.0155386
0.94 0.14 -0.00120484 -0.000836227 0.0014666 0.0153586
0.96 0.14 -0.000329304 0.00088345 0.000942828 0.0152212
0.98 0.14 -7.20135e-06 0.00129436 0.00129438 0.0151294
1 0.14 0 0 0 0.015095
0 0.16 0 0 0 0.0166206
0.02 0.16 -0.000814282 0.00366277 0.00375219 0.0164683
0.04 0.16 -0.0026414 0.00753713 0.00798657 0.0162132
0.06 0.16 -0.0055651 0.0113195 0.0126136 0.0160257
0.08 0.16 -0.0093344 0.0148462 0.0175369 0.0158671
0.1 0.16 -0.0138099 0.018037 0.0227167 0.0157273
0.12 0.16 -0.0188812 0.0208678 0.0281419 0.0155999
0.14 0.16 -0.0244567 0.0233475 0.0338118 0.0154781
0.16 0.16 -0.0304609 0.0255 0.0397255 0.0153568
0.18 0.16 -0.0368277 0.0273506 0.045873 0.015232
0.2 0.16 -0.0434966 0.0289169 0.0522316 0.0151008
0.22 0.16 -0.0504085 0.0302034 0.0587645 0.0149617
0.24 0.16 -0.0575018 0.0311992 0.0654205 0.0148146
0.26 0.16 -0.064709 0.0318786 0.0721353 0.0146606
0.28 0.16 -0.0719565 0.0322058 0.0788349 0.0145019
0.3 0.16 -0.0791633 0.0321377 0.085438 0.0143419
0.32 0.16 -0.0862409 0.0316284 0.0918577 0.0141859
0.34 0.16 -0.0930937 0.0306334 0.0980044 0.0140398
0.36 0.16 -0.0996219 0.0291152 0.103789 0.0139101
0.38 0.16 -0.105722 0.0270462 0.109127 0.0138046
0.4 0.16 -0.11129 0.0244107 0.113936 0.0137318
0.42 0.16 -0.116222 0.0212082 0.118141 0.0136986
0.44 0.16 -0.12042 0.0174587 0.121679 0.0137092
0.46 0.16 -0.123797 0.0132037 0.124499 0.0137685
0.48 0.16 -0.126269 0.00850086 0.126555 0.0138812
0.5 0.16 -0.127762 0.00342424 0.127808 0.014048
0.52 0.16 -0.128215 -0.00193352 0.128229 0.0142667
0.54 0.16 -0.127582 -0.00746231 0.127801 0.0145326
0.56 0.16 -0.125836 -0.0130367 0.126509 0.0148377
0.58 0.16 -0.122964 -0.0185187 0.124351 0.0151714
0.6 0.16 -0.118977 -0.0237614 0.121326 0.015521
0.62 0.16 -0.113908 -0.0286129 0.117447 0.0158708
0.64 0.16 -0.107821 -0.0329189 0.112735 0.0162034
0.66 0.16 -0.100806 -0.0365301 0.107221 0.0165024
0.68 0.16 -0.0929818 -0.039311 0.10095 0.0167528
0.7 0.16 -0.0844963 -0.0411475 0.0939826 0.0169409
0.72 0.16 -0.0755305 -0.0419501 0.0863983 0.0170549
0.74 0.16 -0.0662856 -0.0416651 0.0782928 0.0170928
0.76 0.16 -0.05697 -0.0402927 0.0697788 0.0170584
0.78 0.16 -0.0478047 -0.0378858 0.0609969 0.0169529
0.8 0.16 -0.0390209 -0.0345408 0.0521124 0.0167829
0.82 0.16 -0.0308375 -0.0304034 0.043305 0.0165629
0.84 0.16 -0.0234442 -0.0256697 0.0347644 0.0163081
0.86 0.16 -0.0169942 -0.0205758 0.0266865 0.0160338
0.88 0.16 -0.0115937 -0.0153907 0.0192688 0.0157563
0.9 0.16 -0.00729225 -0.0104098 0.0127098 0.0154901
0.92 0.16 -0.00408048 -0.00594695 0.00721225 0.0152468
0.94 0.16 -0.00188809 -0.0023292 0.00299834 0.015037
0.96 0.16 -0.000581027 0.000107555 0.000590898 0.0148694
0.98 0.16 -2.69722e-05 0.0010295 0.00102985 0.0147268
1 0.16 0 0 0 0.0146567
0 0.18 0 0 0 0.0167014
0.02 0.18 -0.000962942 0.00508878 0.00517909 0.0165259
0.04 0.18 -0.00308816 0.0101461 0.0106057 0.0162356
0.06 0.18 -0.00645289 0.0149087 0.0162453 0.0160283
0.08 0.18 -0.0107502 0.0192471 0.0220458 0.0158562
0.1 0.18 -0.0158105 0.0231125 0.0280029 0.0157061
0.12 0.18 -0.0215024 0.0265079 0.0341324 0.0155689
0.14 0.18 -0.0277205 0.0294628 0.0404534 0.0154361
0.16 0.18 -0.0343792 0.0320159 0.0469782 0.0153014
0.18 0.18 -0.0414057 0.0342021 0.0537049 0.0151596
0.2 0.18 -0.0487349 0.0360426 0.0606148 0.015007
0.22 0.18 -0.0563042 0.037541 0.0676719 0.0148413
0.24 0.18 -0.0640491 0.0386819 0.0748237 0.0146619
0.26 0.18 -0.0718994 0.0394339 0.0820034 0.0144704
0.28 0.18 -0.0797779 0.0397531 0.0891337 0.0142692
0.3 0.18 -0.0876007 0.039589 0.096131 0.0140623
0.32 0.18 -0.095277 0.0388898 0.102908 0.0138552
0.34 0.18 -0.10271 0.0376062 0.109378 0.0136548
0.36 0.18 -0.109797 0.0356968 0.115454 0.013469
0.38 0.18 -0.116436 0.033133 0.121058 0.0133059
0.4 0.18 -0.122521 0.0299012 0.126117 0.0131749
0.42 0.18 -0.127949 0.0260035 0.130565 0.0130866
0.44 0.18 -0.132618 0.0214606 0.134344 0.0130487
0.46 0.18 -0.136437 0.0163189 0.13741 0.013065
0.48 0.18 -0.139323 0.0106489 0.139729 0.0131402
0.5 0.18 -0.141197 0.00453744 0.14127 0.0132784
0.52 0.18 -0.141989 -0.00191137 0.142002 0.013479
0.54 0.18 -0.141644 -0.00857339 0.141903 0.0137379
0.56 0.18 -0.14012 -0.0153063 0.140954 0.0140478
0.58 0.18 -0.137395 -0.0219522 0.139137 0.0143981
0.6 0.18 -0.133462 -0.0283413 0.136438 0.0147757
0.62 0.18 -0.128341 -0.0342967 0.132844 0.0151647
0.64 0.18 -0.122077 -0.0396375 0.128351 0.0155462
0.66 0.18 -0.114749 -0.0441845 0.122962 0.0159011
0.68 0.18 -0.106466 -0.0477702 0.116692 0.0162117
0.7 0.18 -0.0973703 -0.0502493 0.109572 0.016462
0.72 0.18 -0.0876416 -0.0515061 0.101656 0.0166375
0.74 0.18 -0.0774922 -0.0514612 0.0930231 0.0167295
0.76 0.18 -0.067153 -0.0500914 0.0837776 0.0167396
0.78 0.18 -0.0568659 -0.0474425 0.0740576 0.0166716
0.8 0.18 -0.0468877 -0.0436204 0.0640406 0.0165284
0.82 0.18 -0.0374764 -0.0387878 0.0539349 0.0163214
0.84 0.18 -0.0288641 -0.0331699 0.0439702 0.0160678
0.86 0.18 -0.021244 -0.0270462 0.0343919 0.0157841
0.88 0.18 -0.0147604 -0.0207384 0.0254549 0.0154873
0.9 0.18 -0.00949715 -0.0146003 0.0174174 0.0151943
0.92 0.18 -0.0054721 -0.0090081 0.0105399 0.0149186
0.94 0.18 -0.00263458 -0.00435086 0.00508635 0.014673
0.96 0.18 -0.000856494 -0.0010251 0.00133582 0.0144704
0.98 0.18 -5.13125e-05 0.000584165 0.000586415 0.0142741
1 0.18 0 0 0 0.0141669
0 0.2 0 0 0 0.0167228
0.02 0.2 -0.00110218 0.00672292 0.00681267 0.0165265
0.04 0.2 -0.00350409 0.0131184 0.0135783 0.016204
0.06 0.2 -0.00727879 0.01897 0.0203185 0.0159768
0.08 0.2 -0.0120682 0.0241927 0.0270357 0.0157897
0.1 0.2 -0.0176734 0.028779 0.0337725 0.0156268
0.12 0.2 -0.0239425 0.0327662 0.0405816 0.0154765
0.14 0.2 -0.0307565 0.0362109 0.0475099 0.0153285
0.16 0.2 -0.0380199 0.0391713 0.0545885 0.0151751
0.18 0.2 -0.0456538 0.0416943 0.0618279 0.01501
0.2 0.2 -0.0535894 0.0438064 0.0692158 0.0148287
0.22 0.2 -0.0617616 0.0455107 0.0767184 0.0146286
0.24 0.2 -0.0701033 0.0467881 0.0842829 0.0144091
0.26 0.2 -0.0785427 0.0476015 0.0918415 0.0141714
0.28 0.2 -0.0870009 0.0479002 0.0993156 0.0139185
0.3 0.2 -0.0953929 0.0476266 0.106621 0.0136547
0.32 0.2 -0.103628 0.046723 0.113674 0.0133857
0.34 0.2 -0.11161 0.0451359 0.120391 0.0131197
0.36 0.2 -0.119237 0.0428209 0.126693 0.0128658
0.38 0.2 -0.126408 0.0397477 0.13251 0.0126339
0.4 0.2 -0.133018 0.0359039 0.137779 0.0124342
0.42 0.2 -0.138967 0.0312955 0.142447 0.0122784
0.44 0.2 -0.144151 0.0259464 0.146467 0.0121787
0.46 0.2 -0.148472 0.0199027 0.1498 0.0121428
0.48 0.2 -0.151843 0.0132407 0.152419 0.0121738
0.5 0.2 -0.154185 0.0060613 0.154304 0.0122762
0.52 0.2 -0.155419 -0.00151984 0.155426 0.0124532
0.54 0.2 -0.155476 -0.00936798 0.155758 0.0127022
0.56 0.2 -0.154301 -0.0173264 0.155271 0.0130166
0.58 0.2 -0.151855 -0.0252197 0.153935 0.0133864
0.6 0.2 -0.148113 -0.0328562 0.151714 0.013798
0.62 0.2 -0.143076 -0.0400333 0.148572 0.0142351
0.64 0.2 -0.136769 -0.0465423 0.144471 0.0146782
0.66 0.2 -0.12925 -0.0521727 0.139383 0.015105
0.68 0.2 -0.120616 -0.0567214 0.133287 0.0154942
0.7 0.2 -0.110998 -0.0600053 0.126179 0.0158268
0.72 0.2 -0.10057 -0.0618741 0.118079 0.0160853
0.74 0.2 -0.0895473 -0.0622183 0.109041 0.0162551
0.76 0.2 -0.0781816 -0.0609836 0.0991532 0.0163306
0.78 0.2 -0.0667417 -0.0581927 0.0885485 0.0163165
0.8 0.2 -0.0555115 -0.0539531 0.077411 0.0162158
0.82 0.2 -0.0447873 -0.0484445 0.0659755 0.0160351
0.84 0.2 -0.0348517 -0.0419185 0.0545142 0.0157906
0.86 0.2 -0.025948 -0.0346975 0.0433268 0.0155016
0.88 0.2 -0.0182674 -0.0271601 0.0327318 0.0151867
0.9 0.2 -0.011936 -0.0197251 0.0230553 0.0148648
0.92 0.2 -0.00700669 -0.0128376 0.0146253 0.0145528
0.94 0.2 -0.00345474 -0.00695703 0.00776759 0.0142661
0.96 0.2 -0.00116018 -0.00254779 0.00279951 0.0140238
0.98 0.2 -8.09689e-05 -5.25537e-05 9.6529e-05 0.01377
1 0.2 0 0 0 0.0136233
0 0.22 0 0 0 0.016675
0.02 0.22 -0.00122373 0.00855743 0.00864449 0.0164582
0.04 0.22 -0.00387574 0.0164337 0.0168846 0.0161035
0.06 0.22 -0.00802356 0.0234712 0.0248048 0.0158563
0.08 0.22 -0.0132606 0.0296413 0.0324723 0.0156534
0.1 0.22 -0.0193612 0.0349876 0.0399874 0.0154758
0.12 0.22 -0.0261548 0.0395891 0.0474486 0.0153096
0.14 0.22 -0.0335086 0.0435349 0.0549373 0.0151429
0.16 0.22 -0.0413181 0.0469067 0.0625094 0.0149663
0.18 0.22 -0.049499 0.0497659 0.0701912 0.0147722
0.2 0.22 -0.0579798 0.0521457 0.0779796 0.0145554
0.22 0.22 -0.066693 0.0540504 0.0858453 0.0143132
0.24 0.22 -0.0755706 0.0554582 0.0937365 0.0140447
0.26 0.22 -0.08454 0.0563262 0.101586 0.0137511
0.28 0.22 -0.0935227 0.0565972 0.109315 0.0134357
0.3 0.22 -0.102434 0.0562074 0.116842 0.0131034
0.32 0.22 -0.111185 0.0550935 0.124087 0.0127608
0.34 0.22 -0.119682 0.0531983 0.130973 0.0124165
0.36 0.22 -0.127827 0.050475 0.137432 0.0120813
0.38 0.22 -0.135519 0.0468916 0.143402 0.0117671
0.4 0.22 -0.142657 0.0424357 0.148835 0.0114858
0.42 0.22 -0.149141 0.0371156 0.15369 0.0112498
0.44 0.22 -0.154872 0.0309599 0.157936 0.0110732
0.46 0.22 -0.159745 0.0240154 0.16154 0.0109703
0.48 0.22 -0.163665 0.0163562 0.16448 0.0109471
0.5 0.22 -0.166549 0.00809045 0.166745 0.0110051
0.52 0.22 -0.168315 -0.000652254 0.168316 0.0111499
0.54 0.22 -0.16888 -0.00972755 0.16916 0.0113831
0.56 0.22 -0.168172 -0.0189687 0.169238 0.0116992
0.58 0.22 -0.166133 -0.0281852 0.168507 0.012089
0.6 0.22 -0.162721 -0.0371659 0.166911 0.012539
0.62 0.22 -0.157912 -0.0456832 0.164387 0.0130322
0.64 0.22 -0.151707 -0.0534988 0.160864 0.0135486
0.66 0.22 -0.144141 -0.06037 0.156272 0.0140639
0.68 0.22 -0.135287 -0.0660553 0.150552 0.0145524
0.7 0.22 -0.125263 -0.0703285 0.143656 0.0149903
0.72 0.22 -0.114231 -0.0729948 0.135561 0.0153561
0.74 0.22 -0.102402 -0.0739054 0.126286 0.0156307
0.76 0.22 -0.0900374 -0.0729696 0.115893 0.0158003
0.78 0.22 -0.0774364 -0.0701745 0.104503 0.0158627
0.8 0.22 -0.0649165 -0.06561 0.0922975 0.0158232
0.82 0.22 -0.0528112 -0.0594674 0.0795323 0.0156867
0.84 0.22 -0.0414554 -0.052025 0.0665218 0.0154648