Variables = x, y, u, v, umag, p
ZONE I= 101 J= 101 F=point
0 0 1.52459e-06 -1.83333e-06 2.38442e-06 0.0206836
0.01 0 0 0 0 0.0275865
0.02 0 0 0 0 0.0275989
0.03 0 0 -1.69407e-21 1.69407e-21 0.0276029
0.04 0 0 1.69407e-21 1.69407e-21 0.027596
0.05 0 -2.71051e-20 0 2.71051e-20 0.0275751
0.06 0 2.71051e-20 0 2.71051e-20 0.0275402
0.07 0 0 0 0 0.0274922
0.08 0 0 8.47033e-22 8.47033e-22 0.0274325
0.09 0 0 8.47033e-22 8.47033e-22 0.0273623
0.1 0 0 0 0 0.0272829
0.11 0 5.42101e-20 4.23516e-22 5.42118e-20 0.0271952
0.12 0 0 0 0 0.0271001
0.13 0 0 0 0 0.026998
0.14 0 5.42101e-20 2.11758e-22 5.42105e-20 0.0268895
0.15 0 5.42101e-20 0 5.42101e-20 0.0267748
0.16 0 0 0 0 0.0266537
0.17 0 -2.71051e-20 -8.47033e-22 2.71183e-20 0.0265261
0.18 0 0 -8.47033e-22 8.47033e-22 0.0263916
0.19 0 2.71051e-20 -8.47033e-22 2.71183e-20 0.02625
0.2 0 1.35525e-20 1.69407e-21 1.3658e-20 0.026101
0.21 0 6.77626e-21 0 6.77626e-21 0.0259442
0.22 0 0 0 0 0.0257797
0.23 0 1.35525e-20 1.69407e-21 1.3658e-20 0.0256073
0.24 0 0 -1.69407e-21 1.69407e-21 0.0254272
0.25 0 5.42101e-20 0 5.42101e-20 0.0252398
0.26 0 -5.42101e-20 0 5.42101e-20 0.0250455
0.27 0 0 -3.38813e-21 3.38813e-21 0.0248451
0.28 0 0 3.38813e-21 3.38813e-21 0.0246395
0.29 0 1.0842e-19 0 1.0842e-19 0.0244301
0.3 0 1.0842e-19 0 1.0842e-19 0.0242181
0.31 0 0 0 0 0.0240054
0.32 0 2.1684e-19 6.77626e-21 2.16946e-19 0.023794
0.33 0 2.1684e-19 6.77626e-21 2.16946e-19 0.0235863
0.34 0 0 0 0 0.0233847
0.35 0 -2.1684e-19 -6.77626e-21 2.16946e-19 0.023192
0.36 0 -2.1684e-19 0 2.1684e-19 0.0230113
0.37 0 4.33681e-19 6.77626e-21 4.33734e-19 0.0228458
0.38 0 -4.33681e-19 0 4.33681e-19 0.0226988
0.39 0 4.33681e-19 6.77626e-21 4.33734e-19 0.0225739
0.4 0 -4.33681e-19 6.77626e-21 4.33734e-19 0.0224744
0.41 0 0 -6.77626e-21 6.77626e-21 0.0224044
0.42 0 0 0 0 0.0223677
0.43 0 4.33681e-19 6.77626e-21 4.33734e-19 0.0223659
0.44 0 -4.33681e-19 -6.77626e-21 4.33734e-19 0.0224005
0.45 0 0 6.77626e-21 6.77626e-21 0.0224752
0.46 0 0 0 0 0.0225923
0.47 0 -8.67362e-19 6.77626e-21 8.67388e-19 0.0227524
0.48 0 0 0 0 0.022956
0.49 0 -8.67362e-19 0 8.67362e-19 0.0232027
0.5 0 0 0 0 0.0234915
0.51 0 0 -3.38813e-21 3.38813e-21 0.0238205
0.52 0 -8.67362e-19 0 8.67362e-19 0.0241868
0.53 0 0 1.69407e-21 1.69407e-21 0.0245869
0.54 0 -8.67362e-19 -6.35275e-22 8.67362e-19 0.0250162
0.55 0 8.67362e-19 0 8.67362e-19 0.0254688
0.56 0 8.67362e-19 0 8.67362e-19 0.0259379
0.57 0 0 0 0 0.0264161
0.58 0 -8.67362e-19 0 8.67362e-19 0.0268959
0.59 0 -8.67362e-19 6.77626e-21 8.67388e-19 0.0273687
0.6 0 0 0 0 0.0278261
0.61 0 0 0 0 0.0282596
0.62 0 0 1.35525e-20 1.35525e-20 0.0286611
0.63 0 4.33681e-19 0 4.33681e-19 0.0290228
0.64 0 0 -1.35525e-20 1.35525e-20 0.0293378
0.65 0 -4.33681e-19 1.35525e-20 4.33893e-19 0.0295999
0.66 0 0 0 0 0.0298044
0.67 0 -2.1684e-19 -1.35525e-20 2.17264e-19 0.0299476
0.68 0 2.1684e-19 0 2.1684e-19 0.030026
0.69 0 -2.1684e-19 0 2.1684e-19 0.0300417
0.7 0 0 -1.35525e-20 1.35525e-20 0.0299992
0.71 0 0 -1.35525e-20 1.35525e-20 0.0298976
0.72 0 0 0 0 0.0297399
0.73 0 -6.77626e-21 1.35525e-20 1.51522e-20 0.0295332
0.74 0 0 -6.77626e-21 6.77626e-21 0.0292838
0.75 0 0 6.77626e-21 6.77626e-21 0.0289989
0.76 0 -1.0842e-19 -6.77626e-21 1.08632e-19 0.0286864
0.77 0 0 0 0 0.0283542
0.78 0 0 0 0 0.0280101
0.79 0 -1.0842e-19 -3.38813e-21 1.08473e-19 0.0276614
0.8 0 0 0 0 0.0273157
0.81 0 0 0 0 0.0269789
0.82 0 2.1684e-19 0 2.1684e-19 0.0266559
0.83 0 -2.1684e-19 1.69407e-21 2.16847e-19 0.0263513
0.84 0 0 -1.69407e-21 1.69407e-21 0.0260689
0.85 0 2.1684e-19 0 2.1684e-19 0.0258111
0.86 0 0 3.38813e-21 3.38813e-21 0.0255788
0.87 0 0 0 0 0.0253729
0.88 0 0 0 0 0.0251932
0.89 0 1.0842e-19 3.38813e-21 1.08473e-19 0.0250394
0.9 0 1.0842e-19 0 1.0842e-19 0.024911
0.91 0 0 3.38813e-21 3.38813e-21 0.0248071
0.92 0 0 0 0 0.0247269
0.93 0 0 0 0 0.0246693
0.94 0 2.71051e-20 -3.38813e-21 2.7316e-20 0.0246338
0.95 0 -2.71051e-20 0 2.71051e-20 0.0246194
0.96 0 0 0 0 0.0246223
0.97 0 3.38813e-21 8.47033e-22 3.49241e-21 0.0246411
0.98 0 -1.15144e-21 4.23516e-22 1.22685e-21 0.0246689
0.99 0 0 0 0 0.0246874
1 0 3.38853e-06 1.56797e-05 1.60417e-05 0.0185189
0 0.01 0 0 0 0.0275696
0.01 0.01 4.6137e-05 -4.33983e-05 6.33406e-05 0.0275779
0.02 0.01 0.000173968 -0.000103597 0.000202477 0.0275889
0.03 0.01 0.000374359 -0.000145255 0.000401552 0.0275904
0.04 0.01 0.000614614 -0.000166054 0.000636651 0.027582
0.05 0.01 0.000870589 -0.000168912 0.000886824 0.0275606
0.06 0.01 0.0011187 -0.000159199 0.00112997 0.0275264
0.07 0.01 0.00134272 -0.000140681 0.00135007 0.0274801
0.08 0.01 0.00153135 -0.00011634 0.00153577 0.0274228
0.09 0.01 0.00167709 -8.8533e-05 0.00167942 0.0273553
0.1 0.01 0.0017755 -5.91583e-05 0.00177649 0.0272789
0.11 0.01 0.00182448 -2.96234e-05 0.00182472 0.0271945
0.12 0.01 0.00182333 -9.96391e-07 0.00182334 0.0271026
0.13 0.01 0.00177219 2.6414e-05 0.00177239 0.027004
0.14 0.01 0.00167177 5.28646e-05 0.0016726 0.0268988
0.15 0.01 0.00152288 7.86654e-05 0.00152491 0.0267874
0.16 0.01 0.00132601 0.000104244 0.0013301 0.0266697
0.17 0.01 0.00108112 0.000129987 0.0010889 0.0265454
0.18 0.01 0.00078745 0.000156283 0.000802809 0.0264144
0.19 0.01 0.000443554 0.000183582 0.000480044 0.0262764
0.2 0.01 4.73494e-05 0.000212308 0.000217524 0.0261311
0.21 0.01 -0.00040379 0.000242818 0.000471176 0.0259782
0.22 0.01 -0.000912891 0.000275368 0.000953519 0.0258178
0.23 0.01 -0.00148321 0.000310097 0.00151528 0.0256497
0.24 0.01 -0.00211805 0.000347053 0.0021463 0.025474
0.25 0.01 -0.00282062 0.000386187 0.00284694 0.0252912
0.26 0.01 -0.0035938 0.000427335 0.00361912 0.0251016
0.27 0.01 -0.00444001 0.000470234 0.00446484 0.0249061
0.28 0.01 -0.00536103 0.000514524 0.00538566 0.0247055
0.29 0.01 -0.00635784 0.000559758 0.00638243 0.0245009
0.3 0.01 -0.00743059 0.000605388 0.00745521 0.0242938
0.31 0.01 -0.00857869 0.000650912 0.00860335 0.0240858
0.32 0.01 -0.00980023 0.000695836 0.0098249 0.0238789
0.33 0.01 -0.0110918 0.000739422 0.0111164 0.0236753
0.34 0.01 -0.0124486 0.000780808 0.0124731 0.0234775
0.35 0.01 -0.0138647 0.000819164 0.0138889 0.0232881
0.36 0.01 -0.0153326 0.000853608 0.0153564 0.0231101
0.37 0.01 -0.0168435 0.000883224 0.0168667 0.0229466
0.38 0.01 -0.018387 0.000907144 0.0184093 0.0228009
0.39 0.01 -0.0199512 0.000924653 0.0199726 0.0226764
0.4 0.01 -0.0215234 0.000935036 0.0215437 0.0225765
0.41 0.01 -0.0230891 0.000937683 0.0231081 0.0225048
0.42 0.01 -0.024629 0.000930354 0.0246466 0.0224654
0.43 0.01 -0.0261236 0.000910265 0.0261395 0.0224601
0.44 0.01 -0.0275606 0.000878398 0.0275746 0.0224899
0.45 0.01 -0.0289259 0.000836258 0.028938 0.0225586
0.46 0.01 -0.030199 0.00078313 0.0302092 0.0226682
0.47 0.01 -0.031361 0.000718293 0.0313692 0.0228196
0.48 0.01 -0.0323945 0.000641237 0.0324009 0.0230134
0.49 0.01 -0.0332822 0.000551743 0.0332868 0.0232496
0.5 0.01 -0.0340076 0.000450604 0.0340106 0.0235271
0.51 0.01 -0.0345557 0.000339168 0.0345573 0.023844
0.52 0.01 -0.034913 0.00021881 0.0349137 0.0241975
0.53 0.01 -0.0350678 9.19639e-05 0.0350679 0.0245841
0.54 0.01 -0.0350098 -3.93086e-05 0.0350099 0.0249994
0.55 0.01 -0.0347314 -0.000174505 0.0347319 0.0254375
0.56 0.01 -0.0342285 -0.000313222 0.0342299 0.0258921
0.57 0.01 -0.0334994 -0.000454499 0.0335025 0.026356
0.58 0.01 -0.0325451 -0.000596215 0.0325506 0.0268219
0.59 0.01 -0.0313704 -0.000735452 0.031379 0.0272815
0.6 0.01 -0.029985 -0.000869241 0.0299976 0.0277263
0.61 0.01 -0.0284012 -0.000994753 0.0284186 0.0281483
0.62 0.01 -0.0266351 -0.00110935 0.0266582 0.0285394
0.63 0.01 -0.024706 -0.00121057 0.0247357 0.028892
0.64 0.01 -0.0226368 -0.00129614 0.0226739 0.0291994
0.65 0.01 -0.0204531 -0.0013641 0.0204985 0.0294556
0.66 0.01 -0.0181829 -0.00141294 0.0182377 0.029656
0.67 0.01 -0.0158558 -0.00144178 0.0159212 0.0297972
0.68 0.01 -0.0135092 -0.00144871 0.0135866 0.0298756
0.69 0.01 -0.0111806 -0.00143141 0.0112719 0.029893
0.7 0.01 -0.00889192 -0.00139096 0.00900006 0.0298537
0.71 0.01 -0.00666661 -0.00133078 0.00679814 0.0297572
0.72 0.01 -0.00454115 -0.00125324 0.00471091 0.0296065
0.73 0.01 -0.00254528 -0.00115997 0.00279714 0.0294083
0.74 0.01 -0.000701206 -0.00105309 0.00126518 0.0291688
0.75 0.01 0.000971095 -0.000935395 0.00134833 0.0288949
0.76 0.01 0.00245598 -0.000809972 0.0025861 0.0285942
0.77 0.01 0.0037425 -0.000680069 0.00380379 0.0282745
0.78 0.01 0.00482411 -0.000549022 0.00485525 0.0279432
0.79 0.01 0.00569812 -0.000419929 0.00571358 0.0276075
0.8 0.01 0.00636756 -0.000295482 0.00637441 0.0272744
0.81 0.01 0.0068406 -0.000178497 0.00684293 0.0269499
0.82 0.01 0.00712774 -7.11802e-05 0.00712809 0.0266386
0.83 0.01 0.00724194 2.57607e-05 0.00724198 0.0263449
0.84 0.01 0.00719929 0.000112761 0.00720017 0.0260723
0.85 0.01 0.00701786 0.00018932 0.00702041 0.025823
0.86 0.01 0.00671597 0.000254299 0.00672078 0.0255982
0.87 0.01 0.0063118 0.000307522 0.00631929 0.0253986
0.88 0.01 0.0058235 0.000349052 0.00583395 0.0252242
0.89 0.01 0.00526863 0.000379678 0.00528229 0.0250747
0.9 0.01 0.00466382 0.000400476 0.00468098 0.0249494
0.91 0.01 0.00402501 0.000412055 0.00404604 0.0248474
0.92 0.01 0.00336811 0.000414526 0.00339353 0.0247678
0.93 0.01 0.00270963 0.000407142 0.00274005 0.0247097
0.94 0.01 0.00206772 0.000388245 0.00210386 0.0246721
0.95 0.01 0.00146629 0.000353461 0.00150829 0.0246542
0.96 0.01 0.000929355 0.00029772 0.000975878 0.0246524
0.97 0.01 0.000487622 0.000215907 0.000533284 0.0246656
0.98 0.01 0.000170983 0.000114083 0.000205549 0.0246863
0.99 0.01 1.04822e-05 -8.54369e-06 1.3523e-05 0.0247078
1 0.01 0 0 0 0.0247194
0 0.02 0 0 0 0.0275565
0.01 0.02 0.000107495 -0.000169566 0.000200768 0.0275664
0.02 0.02 0.000338732 -0.000331943 0.000474263 0.0275774
0.03 0.02 0.000675145 -0.000441304 0.000806579 0.0275766
0.04 0.02 0.0010651 -0.00049515 0.00117457 0.0275666
0.05 0.02 0.00147215 -0.000500206 0.00155481 0.0275447
0.06 0.02 0.00186018 -0.000467831 0.00191811 0.0275116
0.07 0.02 0.00220323 -0.000407972 0.00224068 0.0274677
0.08 0.02 0.00248178 -0.000329215 0.00250352 0.0274135
0.09 0.02 0.00268202 -0.000238503 0.00269261 0.02735
0.1 0.02 0.00279502 -0.000141201 0.00279858 0.027278
0.11 0.02 0.00281553 -4.12621e-05 0.00281583 0.0271983
0.12 0.02 0.002741 5.85727e-05 0.00274163 0.0271116
0.13 0.02 0.00257061 0.000157009 0.0025754 0.0270183
0.14 0.02 0.00230425 0.00025391 0.0023182 0.0269187
0.15 0.02 0.00194193 0.000349722 0.00197317 0.0268128
0.16 0.02 0.0014833 0.000445376 0.00154872 0.0267007
0.17 0.02 0.000927271 0.000542015 0.00107406 0.0265821
0.18 0.02 0.000271863 0.000640889 0.000696167 0.026457
0.19 0.02 -0.000485889 0.000743302 0.000888024 0.0263249
0.2 0.02 -0.00134988 0.000850434 0.00159544 0.0261858
0.21 0.02 -0.00232476 0.000963232 0.00251641 0.0260394
0.22 0.02 -0.00341567 0.00108232 0.00358304 0.0258856
0.23 0.02 -0.00462788 0.00120798 0.00478294 0.0257244
0.24 0.02 -0.00596652 0.00134016 0.00611518 0.0255558
0.25 0.02 -0.00743626 0.00147842 0.0075818 0.0253802
0.26 0.02 -0.00904098 0.001622 0.00918532 0.0251979
0.27 0.02 -0.0107834 0.00176977 0.0109277 0.0250096
0.28 0.02 -0.0126649 0.00192031 0.0128096 0.0248162
0.29 0.02 -0.014685 0.00207193 0.0148305 0.0246186
0.3 0.02 -0.0168416 0.00222262 0.0169876 0.0244182
0.31 0.02 -0.0191306 0.00237034 0.0192769 0.0242165
0.32 0.02 -0.0215456 0.002513 0.0216917 0.0240152
0.33 0.02 -0.0240775 0.00264805 0.0242227 0.0238166
0.34 0.02 -0.0267144 0.00277276 0.0268579 0.0236228
0.35 0.02 -0.0294422 0.00288442 0.0295832 0.0234366
0.36 0.02 -0.0322443 0.00298003 0.0323817 0.0232607
0.37 0.02 -0.0351013 0.00305651 0.0352341 0.023098
0.38 0.02 -0.0379912 0.00311093 0.0381184 0.0229518
0.39 0.02 -0.0408903 0.0031404 0.0410107 0.0228253
0.4 0.02 -0.0437728 0.00314229 0.0438855 0.0227215
0.41 0.02 -0.0466114 0.00311453 0.0467153 0.022644
0.42 0.02 -0.0493731 0.00305352 0.0494675 0.022597
0.43 0.02 -0.0520238 0.00295452 0.0521076 0.0225831
0.44 0.02 -0.0545381 0.00281791 0.0546108 0.0226029
0.45 0.02 -0.0568901 0.00264649 0.0569516 0.0226596
0.46 0.02 -0.0590466 0.00243972 0.059097 0.022756
0.47 0.02 -0.0609765 0.00219697 0.0610161 0.0228929
0.48 0.02 -0.0626521 0.00191903 0.0626815 0.0230711
0.49 0.02 -0.0640461 0.0016073 0.0640663 0.0232908
0.5 0.02 -0.0651335 0.00126404 0.0651458 0.0235511
0.51 0.02 -0.0658924 0.000892262 0.0658984 0.02385
0.52 0.02 -0.0663037 0.000495672 0.0663055 0.0241851
0.53 0.02 -0.0663518 7.93222e-05 0.0663518 0.0245526
0.54 0.02 -0.0660253 -0.00035161 0.0660263 0.0249479
0.55 0.02 -0.0653168 -0.000792889 0.0653216 0.0253659
0.56 0.02 -0.064223 -0.00124007 0.0642349 0.0258006
0.57 0.02 -0.0627444 -0.00168806 0.0627671 0.0262455
0.58 0.02 -0.060886 -0.00213066 0.0609232 0.0266935
0.59 0.02 -0.0586596 -0.00256053 0.0587155 0.0271363
0.6 0.02 -0.056084 -0.00296985 0.0561626 0.0275656
0.61 0.02 -0.0531821 -0.00335104 0.0532875 0.0279735
0.62 0.02 -0.0499816 -0.0036969 0.0501181 0.0283522
0.63 0.02 -0.0465157 -0.00400068 0.0466874 0.0286942
0.64 0.02 -0.042822 -0.00425617 0.0430329 0.028993
0.65 0.02 -0.0389426 -0.00445792 0.0391969 0.0292427
0.66 0.02 -0.0349231 -0.00460148 0.0352249 0.0294388
0.67 0.02 -0.0308113 -0.00468364 0.0311653 0.0295781
0.68 0.02 -0.0266641 -0.00470062 0.0270752 0.0296572
0.69 0.02 -0.0225393 -0.00464938 0.0230138 0.029677
0.7 0.02 -0.0184764 -0.00453253 0.0190242 0.029642
0.71 0.02 -0.0145168 -0.00435603 0.0151563 0.0295521
0.72 0.02 -0.0107164 -0.00412486 0.0114829 0.0294103
0.73 0.02 -0.0071231 -0.00384405 0.00809415 0.029223
0.74 0.02 -0.00377535 -0.00352009 0.00516182 0.028996
0.75 0.02 -0.000707977 -0.00316086 0.00323918 0.0287362
0.76 0.02 0.00205072 -0.00277511 0.00345061 0.0284509
0.77 0.02 0.00447934 -0.00237211 0.00506867 0.0281474
0.78 0.02 0.0065633 -0.00196137 0.0068501 0.027833
0.79 0.02 0.00829457 -0.00155211 0.00843853 0.0275147
0.8 0.02 0.00967367 -0.00115281 0.00974212 0.027199
0.81 0.02 0.0107094 -0.000771438 0.0107371 0.0268917
0.82 0.02 0.0114161 -0.00041473 0.0114236 0.0265973
0.83 0.02 0.0118131 -8.72653e-05 0.0118135 0.0263198
0.84 0.02 0.0119242 0.000208322 0.0119261 0.0260618
0.85 0.02 0.0117761 0.000469628 0.0117854 0.0258255
0.86 0.02 0.0113979 0.000694678 0.0114191 0.0256123
0.87 0.02 0.0108207 0.000883142 0.0108566 0.0254229
0.88 0.02 0.0100756 0.00103565 0.0101287 0.0252573
0.89 0.02 0.00919429 0.00115343 0.00926636 0.0251151
0.9 0.02 0.00820724 0.00123775 0.00830005 0.0249954
0.91 0.02 0.00714448 0.00128968 0.00725995 0.0248973
0.92 0.02 0.0060362 0.00130912 0.00617653 0.0248199
0.93 0.02 0.00491366 0.00129387 0.00508115 0.024762
0.94 0.02 0.0038098 0.00123933 0.00400631 0.0247224
0.95 0.02 0.00276459 0.00113713 0.00298932 0.0247006
0.96 0.02 0.00181741 0.000977944 0.00206382 0.0246932
0.97 0.02 0.00101822 0.000752473 0.00126609 0.024701
0.98 0.02 0.000396471 0.000474175 0.000618087 0.0247138
0.99 0.02 3.61813e-05 0.000152153 0.000156395 0.0247474
1 0.02 0 0 0 0.0247771
0 0.03 0 0 0 0.0275519
0.01 0.03 0.000150389 -0.000369559 0.000398987 0.0275643
0.02 0.03 0.000450734 -0.000666892 0.000804926 0.0275776
0.03 0.03 0.000870469 -0.000858269 0.00122243 0.0275766
0.04 0.03 0.00134219 -0.000946533 0.00164238 0.0275664
0.05 0.03 0.00182163 -0.000944885 0.00205211 0.0275444
0.06 0.03 0.00226524 -0.000871806 0.00242721 0.0275118
0.07 0.03 0.00264124 -0.000744828 0.00274425 0.0274689
0.08 0.03 0.00292484 -0.00057956 0.0029817 0.0274166
0.09 0.03 0.00309788 -0.000388886 0.0031222 0.0273555
0.1 0.03 0.00314781 -0.00018281 0.00315311 0.0272865
0.11 0.03 0.00306637 3.12836e-05 0.00306653 0.0272102
0.12 0.03 0.0028486 0.000248451 0.00285942 0.0271274
0.13 0.03 0.00249177 0.00046586 0.00253494 0.0270382
0.14 0.03 0.00199405 0.000682467 0.0021076 0.026943
0.15 0.03 0.00135386 0.000898667 0.00162498 0.0268417
0.16 0.03 0.000569332 0.00111588 0.00125273 0.0267343
0.17 0.03 -0.000362181 0.00133619 0.0013844 0.0266207
0.18 0.03 -0.00144422 0.00156195 0.00212731 0.0265006
0.19 0.03 -0.00268133 0.00179551 0.00322698 0.0263738
0.2 0.03 -0.00407899 0.00203891 0.00456019 0.02624
0.21 0.03 -0.0056433 0.00229373 0.00609163 0.0260989
0.22 0.03 -0.00738063 0.0025609 0.00781229 0.0259504
0.23 0.03 -0.00929715 0.00284064 0.00972143 0.0257945
0.24 0.03 -0.0113984 0.00313238 0.011821 0.0256312
0.25 0.03 -0.0136889 0.00343473 0.0141132 0.0254607
0.26 0.03 -0.0161717 0.00374559 0.0165998 0.0252833
0.27 0.03 -0.0188476 0.00406214 0.0192804 0.0250996
0.28 0.03 -0.0217155 0.00438096 0.022153 0.0249103
0.29 0.03 -0.0247713 0.00469807 0.0252129 0.0247163
0.3 0.03 -0.028008 0.00500894 0.0284523 0.0245188
0.31 0.03 -0.0314155 0.00530885 0.0318609 0.0243193
0.32 0.03 -0.0349807 0.00559287 0.035425 0.0241195
0.33 0.03 -0.0386865 0.00585541 0.0391271 0.0239212
0.34 0.03 -0.042512 0.00609049 0.042946 0.0237268
0.35 0.03 -0.0464335 0.00629189 0.0468578 0.0235386
0.36 0.03 -0.0504242 0.00645344 0.0508355 0.0233592
0.37 0.03 -0.0544537 0.00656933 0.0548486 0.0231918
0.38 0.03 -0.0584889 0.00663397 0.0588639 0.0230394
0.39 0.03 -0.062494 0.00664153 0.062846 0.0229055
0.4 0.03 -0.0664316 0.00658717 0.0667574 0.0227933
0.41 0.03 -0.0702632 0.00646748 0.0705602 0.0227061
0.42 0.03 -0.0739471 0.00627887 0.0742132 0.0226481
0.43 0.03 -0.0774393 0.00601578 0.0776727 0.0226228
0.44 0.03 -0.080704 0.00567731 0.0809035 0.0226309
0.45 0.03 -0.0837079 0.00526928 0.0838735 0.0226751
0.46 0.03 -0.0864117 0.00479357 0.0865446 0.0227585
0.47 0.03 -0.0887785 0.00424981 0.0888801 0.0228824
0.48 0.03 -0.0907761 0.00364075 0.0908491 0.0230474
0.49 0.03 -0.0923751 0.00297049 0.0924229 0.0232536
0.5 0.03 -0.0935489 0.00224399 0.0935758 0.0235004
0.51 0.03 -0.0942748 0.00146721 0.0942862 0.0237862
0.52 0.03 -0.094534 0.00064742 0.0945362 0.0241087
0.53 0.03 -0.0943124 -0.000207161 0.0943126 0.0244642
0.54 0.03 -0.0936011 -0.00108732 0.0936074 0.0248482
0.55 0.03 -0.0923961 -0.00198285 0.0924174 0.0252557
0.56 0.03 -0.0906982 -0.00288281 0.090744 0.0256808
0.57 0.03 -0.0885126 -0.00377567 0.0885931 0.026117
0.58 0.03 -0.0858497 -0.00464983 0.0859755 0.0265575
0.59 0.03 -0.0827274 -0.00549284 0.0829096 0.0269939
0.6 0.03 -0.079171 -0.00629109 0.0794206 0.0274181
0.61 0.03 -0.0752106 -0.00703117 0.0755386 0.027822
0.62 0.03 -0.0708815 -0.00770036 0.0712985 0.0281976
0.63 0.03 -0.0662247 -0.00828661 0.0667411 0.0285377
0.64 0.03 -0.0612862 -0.00877887 0.0619118 0.0288355
0.65 0.03 -0.056117 -0.00916736 0.0568608 0.0290851
0.66 0.03 -0.0507719 -0.00944391 0.0516427 0.029282
0.67 0.03 -0.0453081 -0.00960235 0.0463145 0.029423
0.68 0.03 -0.0397921 -0.00963707 0.0409424 0.0295044
0.69 0.03 -0.0342923 -0.00954447 0.0355958 0.0295268
0.7 0.03 -0.0288596 -0.00932812 0.0303297 0.029495
0.71 0.03 -0.023546 -0.00899629 0.0252061 0.0294091
0.72 0.03 -0.0184186 -0.00855667 0.0203091 0.029272
0.73 0.03 -0.0135369 -0.00801823 0.0157334 0.02909
0.74 0.03 -0.00895086 -0.00739293 0.0116092 0.0288689
0.75 0.03 -0.00470612 -0.00669494 0.0081835 0.0286156
0.76 0.03 -0.000841429 -0.00594026 0.00599956 0.0283375
0.77 0.03 0.00261218 -0.0051461 0.00577112 0.0280419
0.78 0.03 0.00563159 -0.0043301 0.00710384 0.027736
0.79 0.03 0.00820157 -0.00350969 0.00892097 0.0274267
0.8 0.03 0.0103171 -0.00270147 0.0106649 0.0271206
0.81 0.03 0.0119831 -0.00192075 0.012136 0.0268232
0.82 0.03 0.013212 -0.00118113 0.0132647 0.026539
0.83 0.03 0.0140236 -0.000493985 0.0140323 0.0262717
0.84 0.03 0.0144435 0.000131848 0.0144441 0.0260239
0.85 0.03 0.0145019 0.000690197 0.0145184 0.0257974
0.86 0.03 0.0142342 0.00117744 0.0142828 0.0255936
0.87 0.03 0.0136783 0.00159212 0.0137707 0.0254128
0.88 0.03 0.0128744 0.00193468 0.013019 0.0252548
0.89 0.03 0.0118631 0.00220634 0.0120665 0.0251193
0.9 0.03 0.0106859 0.00240837 0.010954 0.0250053
0.91 0.03 0.00938464 0.00254152 0.00972269 0.0249117
0.92 0.03 0.00800115 0.0026047 0.00841444 0.0248374
0.93 0.03 0.00657868 0.00259386 0.00707157 0.0247813
0.94 0.03 0.00516191 0.00250132 0.00573602 0.024742
0.95 0.03 0.00380261 0.00231525 0.00445199 0.0247196
0.96 0.03 0.00255007 0.00202296 0.00325503 0.0247106
0.97 0.03 0.00146998 0.00161248 0.00218196 0.0247188
0.98 0.03 0.000590813 0.00109819 0.00124703 0.0247299
0.99 0.03 5.34039e-05 0.000497908 0.000500764 0.0247787
1 0.03 0 0 0 0.0248266
0 0.04 0 0 0 0.0275583
0.01 0.04 0.000172777 -0.000610756 0.000634724 0.0275721
0.02 0.04 0.000507244 -0.00105664 0.00117209 0.0275867
0.03 0.04 0.000961452 -0.00132819 0.00163966 0.0275853
0.04 0.04 0.00145594 -0.00143983 0.00204765 0.0275746
0.05 0.04 0.0019408 -0.0014146 0.00240162 0.0275522
0.06 0.04 0.00236799 -0.00127942 0.00269152 0.0275198
0.07 0.04 0.00270251 -0.00105989 0.00290292 0.0274777
0.08 0.04 0.0029164 -0.00077883 0.0030186 0.0274268
0.09 0.04 0.00298864 -0.00045535 0.00302313 0.0273678
0.1 0.04 0.00290397 -0.000104612 0.00290585 0.0273015
0.11 0.04 0.00265154 0.000262094 0.00266446 0.0272285
0.12 0.04 0.00222393 0.000637111 0.00231339 0.0271493
0.13 0.04 0.00161596 0.00101588 0.00190876 0.0270641
0.14 0.04 0.000823641 0.00139652 0.00162131 0.0269732
0.15 0.04 -0.000156605 0.00177934 0.00178622 0.0268765
0.16 0.04 -0.00132857 0.00216624 0.00254119 0.026774
0.17 0.04 -0.00269667 0.00256012 0.00371836 0.0266655
0.18 0.04 -0.00426614 0.00296432 0.00519491 0.0265505
0.19 0.04 -0.00604302 0.00338206 0.00692506 0.0264289
0.2 0.04 -0.00803394 0.00381608 0.00889419 0.0263002
0.21 0.04 -0.0102458 0.00426828 0.0110993 0.0261642
0.22 0.04 -0.0126851 0.0047395 0.0135416 0.0260207
0.23 0.04 -0.0153579 0.0052293 0.0162238 0.0258695
0.24 0.04 -0.0182686 0.00573588 0.0191479 0.0257105
0.25 0.04 -0.02142 0.00625614 0.022315 0.0255439
0.26 0.04 -0.0248122 0.00678578 0.0257234 0.0253698
0.27 0.04 -0.0284424 0.00731938 0.029369 0.0251888
0.28 0.04 -0.0323043 0.0078506 0.0332445 0.0250014
0.29 0.04 -0.036388 0.00837217 0.0373388 0.0248084
0.3 0.04 -0.0406796 0.00887585 0.0416367 0.024611
0.31 0.04 -0.045161 0.00935275 0.0461193 0.0244103
0.32 0.04 -0.0498102 0.00979373 0.0507639 0.0242078
0.33 0.04 -0.0546011 0.0101894 0.0555437 0.0240055
0.34 0.04 -0.0595028 0.0105301 0.0604274 0.0238054
0.35 0.04 -0.0644809 0.0108051 0.06538 0.0236102
0.36 0.04 -0.0694975 0.0110049 0.0703635 0.0234226
0.37 0.04 -0.0745118 0.0111213 0.0753372 0.0232457
0.38 0.04 -0.0794811 0.0111465 0.0802589 0.0230824
0.39 0.04 -0.0843601 0.0110736 0.0850837 0.0229366
0.4 0.04 -0.0891019 0.0108966 0.0897657 0.022812
0.41 0.04 -0.0936606 0.0106108 0.0942598 0.0227114
0.42 0.04 -0.0979901 0.0102131 0.0985209 0.0226389
0.43 0.04 -0.102042 0.0096988 0.102502 0.0225987
0.44 0.04 -0.105774 0.00906647 0.106161 0.0225928
0.45 0.04 -0.109149 0.0083241 0.109466 0.0226224
0.46 0.04 -0.112131 0.0074784 0.11238 0.0226902
0.47 0.04 -0.114682 0.00653147 0.114867 0.0227987
0.48 0.04 -0.11677 0.0054879 0.116898 0.0229487
0.49 0.04 -0.118367 0.0043549 0.118448 0.0231404
0.5 0.04 -0.119451 0.0031415 0.119493 0.0233733
0.51 0.04 -0.120002 0.00185825 0.120017 0.0236461
0.52 0.04 -0.120004 0.000517092 0.120005 0.0239566
0.53 0.04 -0.119448 -0.000869054 0.119451 0.0243014
0.54 0.04 -0.118328 -0.00228601 0.11835 0.0246764
0.55 0.04 -0.116645 -0.00371804 0.116704 0.0250763
0.56 0.04 -0.114403 -0.00514837 0.114519 0.0254952
0.57 0.04 -0.111613 -0.00655946 0.111806 0.0259264
0.58 0.04 -0.108291 -0.00793388 0.108581 0.0263632
0.59 0.04 -0.104456 -0.00925374 0.104865 0.0267974
0.6 0.04 -0.100137 -0.0104996 0.100686 0.0272206
0.61 0.04 -0.0953692 -0.0116523 0.0960784 0.0276248
0.62 0.04 -0.0901896 -0.0126933 0.0910785 0.028002
0.63 0.04 -0.0846427 -0.0136055 0.0857292 0.0283446
0.64 0.04 -0.0787776 -0.0143726 0.0800779 0.0286458
0.65 0.04 -0.0726484 -0.0149804 0.0741768 0.0288996
0.66 0.04 -0.0663136 -0.0154169 0.0680821 0.0291012
0.67 0.04 -0.0598338 -0.0156727 0.0618524 0.0292475
0.68 0.04 -0.0532789 -0.0157404 0.0555554 0.0293345
0.69 0.04 -0.0467226 -0.0156146 0.0492627 0.0293624
0.7 0.04 -0.040222 -0.0152982 0.0430331 0.029336
0.71 0.04 -0.0338356 -0.0148024 0.0369318 0.0292558
0.72 0.04 -0.0276368 -0.0141376 0.0310429 0.0291244
0.73 0.04 -0.0216929 -0.013316 0.0254538 0.0289481
0.74 0.04 -0.016062 -0.0123547 0.0202639 0.0287327
0.75 0.04 -0.0107986 -0.0112741 0.0156114 0.0284854
0.76 0.04 -0.00595023 -0.0100974 0.0117202 0.0282134
0.77 0.04 -0.00155672 -0.00885 0.00898587 0.0279243
0.78 0.04 0.00235024 -0.00755836 0.00791533 0.0276253
0.79 0.04 0.00574731 -0.00624905 0.00849013 0.0273235
0.8 0.04 0.00862206 -0.00494802 0.00994096 0.0270253
0.81 0.04 0.0109729 -0.0036797 0.0115735 0.0267363
0.82 0.04 0.0128069 -0.00246633 0.0130422 0.0264608
0.83 0.04 0.0141396 -0.00132726 0.0142018 0.0262025
0.84 0.04 0.0149947 -0.000278416 0.0149973 0.025964
0.85 0.04 0.0154029 0.000668396 0.0154174 0.0257471
0.86 0.04 0.0154009 0.00150535 0.0154743 0.0255527
0.87 0.04 0.0150301 0.00222784 0.0151943 0.0253809
0.88 0.04 0.0143352 0.00283408 0.0146127 0.0252314
0.89 0.04 0.0133633 0.00332423 0.0137706 0.0251032
0.9 0.04 0.0121632 0.00369918 0.0127133 0.0249956
0.91 0.04 0.0107851 0.00395881 0.0114887 0.0249072
0.92 0.04 0.00928018 0.00410072 0.0101458 0.0248368
0.93 0.04 0.00770144 0.00411909 0.00873379 0.0247833
0.94 0.04 0.00610287 0.00400361 0.0072989 0.0247455
0.95 0.04 0.00454579 0.0037393 0.00588613 0.0247236
0.96 0.04 0.0030877 0.00330993 0.00452654 0.0247143
0.97 0.04 0.00180783 0.00270009 0.00324942 0.0247234
0.98 0.04 0.000738947 0.00191617 0.00205371 0.0247341
0.99 0.04 6.88493e-05 0.000972841 0.000975275 0.0247933
1 0.04 0 0 0 0.0248534
0 0.05 0 0 0 0.027579
0.01 0.05 0.000176963 -0.000868888 0.000886726 0.0275932
0.02 0.05 0.000512951 -0.00146347 0.00155076 0.0276077
0.03 0.05 0.00095681 -0.00180404 0.00204207 0.0276055
0.04 0.05 0.00142145 -0.00192093 0.00238967 0.0275939
0.05 0.05 0.00185298 -0.0018498 0.00261826 0.0275707
0.06 0.05 0.00220086 -0.00162719 0.00273707 0.0275378
0.07 0.05 0.00242853 -0.00128722 0.00274858 0.0274959
0.08 0.05 0.00250635 -0.00086008 0.00264981 0.0274458
0.09 0.05 0.00241148 -0.000371152 0.00243988 0.0273882
0.1 0.05 0.00212666 0.00015926 0.00213262 0.0273239
0.11 0.05 0.00163896 0.000715908 0.00178849 0.0272534
0.12 0.05 0.000938687 0.00128828 0.00159399 0.0271773
0.13 0.05 1.83471e-05 0.00187009 0.00187018 0.0270957
0.14 0.05 -0.00112834 0.00245864 0.00270519 0.0270087
0.15 0.05 -0.00250716 0.00305411 0.00395139 0.0269163
0.16 0.05 -0.00412399 0.00365877 0.00551307 0.0268182
0.17 0.05 -0.00598512 0.00427615 0.00735576 0.0267142
0.18 0.05 -0.00809732 0.00491025 0.00946981 0.0266038
0.19 0.05 -0.0104677 0.0055649 0.011855 0.0264867
0.2 0.05 -0.0131035 0.00624306 0.0145147 0.0263623
0.21 0.05 -0.0160114 0.00694633 0.0174533 0.0262304
0.22 0.05 -0.0191974 0.00767463 0.0206746 0.0260904
0.23 0.05 -0.0226656 0.008426 0.0241811 0.0259422
0.24 0.05 -0.0264181 0.00919656 0.027973 0.0257856
0.25 0.05 -0.0304537 0.00998061 0.0320474 0.0256206
0.26 0.05 -0.0347677 0.0107708 0.0363979 0.0254472
0.27 0.05 -0.0393516 0.0115578 0.0410138 0.0252657
0.28 0.05 -0.0441921 0.012331 0.0458802 0.0250765
0.29 0.05 -0.0492716 0.0130783 0.0509778 0.0248803
0.3 0.05 -0.0545678 0.0137871 0.0562826 0.0246779
0.31 0.05 -0.0600528 0.0144434 0.0617653 0.0244707
0.32 0.05 -0.0656944 0.0150331 0.0673925 0.0242603
0.33 0.05 -0.0714558 0.015543 0.0731267 0.0240483
0.34 0.05 -0.0772969 0.0159597 0.0789273 0.023837
0.35 0.05 -0.083173 0.0162703 0.0847495 0.0236292
0.36 0.05 -0.0890362 0.0164622 0.0905452 0.023428
0.37 0.05 -0.0948371 0.0165246 0.0962659 0.0232361
0.38 0.05 -0.100526 0.0164479 0.101862 0.023057
0.39 0.05 -0.106051 0.0162252 0.107285 0.0228941
0.4 0.05 -0.111363 0.0158504 0.112486 0.0227511
0.41 0.05 -0.116412 0.0153191 0.117416 0.0226317
0.42 0.05 -0.121151 0.0146292 0.122031 0.0225396
0.43 0.05 -0.125533 0.0137797 0.126287 0.0224795
0.44 0.05 -0.129512 0.0127695 0.13014 0.0224551
0.45 0.05 -0.133054 0.0116061 0.133559 0.0224671
0.46 0.05 -0.136127 0.0103029 0.136516 0.0225174
0.47 0.05 -0.138698 0.00886762 0.138982 0.0226088
0.48 0.05 -0.14074 0.0073077 0.140929 0.022743
0.49 0.05 -0.142228 0.00563422 0.142339 0.0229203
0.5 0.05 -0.143143 0.00386061 0.143196 0.0231404
0.51 0.05 -0.143473 0.00200214 0.143487 0.023402
0.52 0.05 -0.143205 7.5547e-05 0.143205 0.0237029
0.53 0.05 -0.142334 -0.00190117 0.142347 0.0240399
0.54 0.05 -0.14086 -0.00390875 0.140914 0.0244087
0.55 0.05 -0.138785 -0.0059266 0.138911 0.0248044
0.56 0.05 -0.136117 -0.00793309 0.136348 0.0252209
0.57 0.05 -0.132869 -0.00990552 0.133238 0.0256516
0.58 0.05 -0.129057 -0.0118211 0.129597 0.0260897
0.59 0.05 -0.124704 -0.0136566 0.125449 0.026527
0.6 0.05 -0.119837 -0.0153874 0.120821 0.0269551
0.61 0.05 -0.114491 -0.0169885 0.115744 0.0273656
0.62 0.05 -0.108702 -0.0184362 0.110255 0.0277503
0.63 0.05 -0.102516 -0.0197078 0.104393 0.0281016
0.64 0.05 -0.0959792 -0.0207824 0.0982034 0.0284123
0.65 0.05 -0.0891464 -0.0216408 0.0917355 0.0286761
0.66 0.05 -0.0820756 -0.0222667 0.0850424 0.0288881
0.67 0.05 -0.0748277 -0.0226473 0.0781798 0.0290449
0.68 0.05 -0.0674724 -0.0227733 0.0712119 0.0291424
0.69 0.05 -0.0600849 -0.0226361 0.0642073 0.02918
0.7 0.05 -0.0527274 -0.0222359 0.0572243 0.0291624
0.71 0.05 -0.0454622 -0.0215866 0.0503269 0.0290907
0.72 0.05 -0.0383655 -0.0207016 0.0435944 0.0289673
0.73 0.05 -0.0315108 -0.0195952 0.0371066 0.0287981
0.74 0.05 -0.0249636 -0.0182888 0.0309461 0.0285892
0.75 0.05 -0.0187851 -0.0168085 0.0252073 0.0283478
0.76 0.05 -0.0130312 -0.0151842 0.0200093 0.0280813
0.77 0.05 -0.00774996 -0.0134492 0.0155224 0.0277976
0.78 0.05 -0.00298181 -0.0116389 0.0120147 0.027504
0.79 0.05 0.00124128 -0.00978924 0.00986762 0.0272077
0.8 0.05 0.00489852 -0.00793633 0.00932635 0.0269154
0.81 0.05 0.00798046 -0.0061148 0.0100538 0.0266326
0.82 0.05 0.010487 -0.00435674 0.011356 0.026364
0.83 0.05 0.0124277 -0.00269057 0.0127157 0.026113
0.84 0.05 0.0138218 -0.00114036 0.0138688 0.0258823
0.85 0.05 0.0146969 0.000274745 0.0146995 0.0256735
0.86 0.05 0.0150882 0.00154055 0.0151666 0.0254873
0.87 0.05 0.0150373 0.00264746 0.0152686 0.0253237
0.88 0.05 0.0145911 0.0035898 0.0150262 0.0251822
0.89 0.05 0.0138003 0.00436493 0.0144741 0.0250617
0.9 0.05 0.0127185 0.00497171 0.0136557 0.0249609
0.91 0.05 0.011402 0.00540858 0.0126197 0.0248784
0.92 0.05 0.00990878 0.00567176 0.0114172 0.024813
0.93 0.05 0.00829938 0.00575355 0.0100987 0.0247634