Variables = x, y, u, v, umag, p
ZONE I= 201 J= 51 F=point
0 0 0.0099 0 0.0099 0.0165096
0.0703713 0 0 -8.47033e-22 8.47033e-22 0.0204526
0.140743 0 -1.73472e-18 0 1.73472e-18 0.0167588
0.211114 0 0 2.11758e-22 2.11758e-22 0.0125925
0.281485 0 -1.73472e-18 0 1.73472e-18 0.00861961
0.351857 0 -1.73472e-18 0 1.73472e-18 0.00474669
0.422228 0 0 0 0 0.000884533
0.492599 0 0 0 0 -0.00297806
0.562971 0 -1.73472e-18 0 1.73472e-18 -0.00685298
0.633342 0 -1.73472e-18 4.23516e-22 1.73472e-18 -0.0107482
0.703713 0 0 0 0 -0.0146676
0.774085 0 0 -4.23516e-22 4.23516e-22 -0.0186146
0.844456 0 -1.73472e-18 4.23516e-22 1.73472e-18 -0.0225935
0.914827 0 0 0 0 -0.0266105
0.985199 0 1.73472e-18 -8.47033e-22 1.73472e-18 -0.0306725
1.05557 0 0 0 0 -0.0347877
1.12594 0 1.73472e-18 8.47033e-22 1.73472e-18 -0.0389648
1.19631 0 1.73472e-18 -8.47033e-22 1.73472e-18 -0.0432157
1.26668 0 0 0 0 -0.0475525
1.33706 0 0 1.69407e-21 1.69407e-21 -0.0519933
1.40743 0 0 1.69407e-21 1.69407e-21 -0.0565555
1.4778 0 0 -1.69407e-21 1.69407e-21 -0.0612676
1.54817 0 1.73472e-18 0 1.73472e-18 -0.0661546
1.61854 0 -1.73472e-18 0 1.73472e-18 -0.0712659
1.68891 0 0 -3.38813e-21 3.38813e-21 -0.0766389
1.75928 0 0 0 0 -0.0823725
1.82965 0 0 -6.77626e-21 6.77626e-21 -0.0885395
1.90003 0 -1.73472e-18 0 1.73472e-18 -0.0953758
1.9704 0 -1.73472e-18 0 1.73472e-18 -0.103165
2.04077 -0.00166634 0 0 0 -0.113127
2.11114 -0.0125128 0 4.33681e-19 4.33681e-19 -0.121173
2.18151 -0.0341173 0 4.33681e-19 4.33681e-19 -0.121468
2.25188 -0.0680912 4.33681e-19 0 4.33681e-19 -0.114308
2.32225 -0.117717 0 0 0 -0.101812
2.39263 -0.176764 0 -1.0842e-19 1.0842e-19 -0.0892424
2.463 -0.235812 0 -1.0842e-19 1.0842e-19 -0.0807794
2.53337 -0.294859 -2.1684e-19 -2.1684e-19 3.06659e-19 -0.0751257
2.60374 -0.353906 2.1684e-19 2.1684e-19 3.06659e-19 -0.0707857
2.67411 -0.412954 -2.1684e-19 -2.1684e-19 3.06659e-19 -0.0675016
2.74448 -0.472001 2.1684e-19 -2.1684e-19 3.06659e-19 -0.0649141
2.81485 -0.531049 0 -2.1684e-19 2.1684e-19 -0.0628414
2.88522 -0.590096 0 -2.1684e-19 2.1684e-19 -0.0611357
2.9556 -0.649144 -2.1684e-19 0 2.1684e-19 -0.0596825
3.02597 -0.708191 -2.1684e-19 2.1684e-19 3.06659e-19 -0.0583902
3.09634 -0.767239 0 -2.1684e-19 2.1684e-19 -0.0571859
3.16671 -0.826286 0 1.0842e-19 1.0842e-19 -0.0560671
3.23708 -0.885317 0 -1.0842e-19 1.0842e-19 -0.0553016
3.30745 -0.934009 0 -1.0842e-19 1.0842e-19 -0.05498
3.37782 -0.967283 2.1684e-19 0 2.1684e-19 -0.0548174
3.4482 -0.988302 0 -2.71051e-20 2.71051e-20 -0.0546904
3.51857 -0.998618 -2.1684e-19 1.35525e-20 2.17264e-19 -0.0546205
3.58894 -1 -2.1684e-19 6.77626e-21 2.16946e-19 -0.0543916
3.65931 -1 -2.1684e-19 0 2.1684e-19 -0.053906
3.72968 -1 4.33681e-19 0 4.33681e-19 -0.053319
3.80005 -1 0 0 0 -0.0526574
3.87042 -1 0 0 0 -0.0519213
3.94079 -1 -4.33681e-19 3.38813e-21 4.33694e-19 -0.0511136
4.01117 -1 0 -3.38813e-21 3.38813e-21 -0.0502359
4.08154 -1 0 -3.38813e-21 3.38813e-21 -0.0492894
4.15191 -1 0 3.38813e-21 3.38813e-21 -0.0482754
4.22228 -1 4.33681e-19 3.38813e-21 4.33694e-19 -0.0471953
4.29265 -1 0 0 0 -0.0460504
4.36302 -1 -4.33681e-19 3.38813e-21 4.33694e-19 -0.0448424
4.43339 -1 4.33681e-19 3.38813e-21 4.33694e-19 -0.043573
4.50377 -1 -4.33681e-19 1.69407e-21 4.33684e-19 -0.0422439
4.57414 -1 4.33681e-19 1.69407e-21 4.33684e-19 -0.0408571
4.64451 -1 0 1.69407e-21 1.69407e-21 -0.0394149
4.71488 -1 0 -1.69407e-21 1.69407e-21 -0.0379199
4.78525 -1 0 -8.47033e-22 8.47033e-22 -0.0363744
4.85562 -1 0 0 0 -0.0347812
4.92599 -1 0 -4.23516e-22 4.23516e-22 -0.0331429
4.99636 -1 4.33681e-19 -2.11758e-22 4.33681e-19 -0.0314629
5.06674 -1 0 0 0 -0.029745
5.13711 -1 0 4.23516e-22 4.23516e-22 -0.027993
5.20748 -1 4.33681e-19 0 4.33681e-19 -0.026211
5.27785 -1 -4.33681e-19 0 4.33681e-19 -0.024403
5.34822 -1 -4.33681e-19 0 4.33681e-19 -0.0225737
5.41859 -1 0 0 0 -0.0207277
5.48896 -1 4.33681e-19 -1.69407e-21 4.33684e-19 -0.01887
5.55934 -1 0 0 0 -0.0170053
5.62971 -1 0 -3.38813e-21 3.38813e-21 -0.0151389
5.70008 -1 -4.33681e-19 3.38813e-21 4.33694e-19 -0.0132765
5.77045 -1 0 0 0 -0.0114234
5.84082 -1 0 3.38813e-21 3.38813e-21 -0.00958469
5.91119 -1 4.33681e-19 -3.38813e-21 4.33694e-19 -0.00776577
5.98156 -1 4.33681e-19 3.38813e-21 4.33694e-19 -0.00597176
6.05193 -1 -4.33681e-19 3.38813e-21 4.33694e-19 -0.00420771
6.12231 -1 4.33681e-19 0 4.33681e-19 -0.00247846
6.19268 -1 2.1684e-19 0 2.1684e-19 -0.000788641
6.26305 -1 0 6.77626e-21 6.77626e-21 0.000857376
6.33342 -1 2.1684e-19 0 2.1684e-19 0.00245552
6.40379 -1 2.1684e-19 6.77626e-21 2.16946e-19 0.00400206
6.47416 -1 -2.1684e-19 0 2.1684e-19 0.00549361
6.54453 -1 -2.1684e-19 0 2.1684e-19 0.00692719
6.61491 -1 -1.0842e-19 -6.77626e-21 1.08632e-19 0.00830021
6.68528 -1 0 -6.77626e-21 6.77626e-21 0.00961051
6.75565 -1 5.42101e-20 0 5.42101e-20 0.0108563
6.82602 -1 -5.42101e-20 -6.77626e-21 5.4632e-20 0.0120364
6.89639 -1 3.38813e-21 -6.77626e-21 7.57609e-21 0.0131497
6.96676 -1 0 -6.77626e-21 6.77626e-21 0.0141959
7.03713 -1 -5.42101e-20 6.77626e-21 5.4632e-20 0.0151749
7.1075 -1 0 0 0 0.0160869
7.17788 -1 0 6.77626e-21 6.77626e-21 0.0169327
7.24825 -1 -1.0842e-19 -6.77626e-21 1.08632e-19 0.0177131
7.31862 -1 2.1684e-19 0 2.1684e-19 0.0184295
7.38899 -1 2.1684e-19 0 2.1684e-19 0.0190835
7.45936 -1 2.1684e-19 0 2.1684e-19 0.0196768
7.52973 -1 0 0 0 0.0202115
7.6001 -1 2.1684e-19 -3.38813e-21 2.16867e-19 0.0206897
7.67048 -1 0 0 0 0.0211138
7.74085 -1 0 3.38813e-21 3.38813e-21 0.0214861
7.81122 -1 0 0 0 0.0218093
7.88159 -1 -4.33681e-19 0 4.33681e-19 0.0220858
7.95196 -1 0 3.38813e-21 3.38813e-21 0.0223183
8.02233 -1 4.33681e-19 -3.38813e-21 4.33694e-19 0.0225093
8.0927 -1 0 0 0 0.0226615
8.16307 -1 4.33681e-19 -3.38813e-21 4.33694e-19 0.0227774
8.23345 -1 -4.33681e-19 3.38813e-21 4.33694e-19 0.0228594
8.30382 -1 4.33681e-19 3.38813e-21 4.33694e-19 0.0229095
8.37419 -1 0 0 0 0.0229307
8.44456 -1 4.33681e-19 -3.38813e-21 4.33694e-19 0.0229273
8.51493 -1 4.33681e-19 -1.69407e-21 4.33684e-19 0.0229003
8.5853 -1 0 1.69407e-21 1.69407e-21 0.022849
8.65567 -1 4.33681e-19 -1.69407e-21 4.33684e-19 0.0227755
8.72605 -1 0 0 0 0.0226828
8.79642 -1 -4.33681e-19 0 4.33681e-19 0.0225725
8.86679 -1 0 0 0 0.0224464
8.93716 -1 -4.33681e-19 0 4.33681e-19 0.0223058
9.00753 -1 4.33681e-19 -1.69407e-21 4.33684e-19 0.0221521
9.0779 -1 4.33681e-19 0 4.33681e-19 0.0219865
9.14827 -1 0 -1.69407e-21 1.69407e-21 0.0218103
9.21864 -1 0 0 0 0.0216243
9.28902 -1 0 8.47033e-22 8.47033e-22 0.0214297
9.35939 -1 -8.67362e-19 0 8.67362e-19 0.0212271
9.42976 -1 8.67362e-19 0 8.67362e-19 0.0210174
9.50013 -1 -8.67362e-19 8.47033e-22 8.67362e-19 0.0208012
9.5705 -1 0 0 0 0.0205792
9.64087 -1 0 0 0 0.0203518
9.71124 -1 0 -8.47033e-22 8.47033e-22 0.0201195
9.78162 -1 0 0 0 0.0198828
9.85199 -1 8.67362e-19 -8.47033e-22 8.67362e-19 0.019642
9.92236 -1 0 -4.23516e-22 4.23516e-22 0.0193974
9.99273 -1 0 -4.23516e-22 4.23516e-22 0.0191493
10.0631 -1 8.67362e-19 0 8.67362e-19 0.0188978
10.1335 -1 0 0 0 0.0186432
10.2038 -1 -8.67362e-19 -4.23516e-22 8.67362e-19 0.0183856
10.2742 -1 0 0 0 0.0181252
10.3446 -1 0 -4.23516e-22 4.23516e-22 0.017862
10.415 -1 -8.67362e-19 -4.23516e-22 8.67362e-19 0.0175961
10.4853 -1 8.67362e-19 -4.23516e-22 8.67362e-19 0.0173276
10.5557 -1 0 0 0 0.0170565
10.6261 -1 0 0 0 0.0167829
10.6964 -1 -8.67362e-19 0 8.67362e-19 0.0165068
10.7668 -1 0 0 0 0.0162281
10.8372 -1 8.67362e-19 -2.11758e-22 8.67362e-19 0.0159469
10.9076 -1 -8.67362e-19 0 8.67362e-19 0.0156632
10.9779 -1 0 -2.11758e-22 2.11758e-22 0.0153769
11.0483 -1 8.67362e-19 2.11758e-22 8.67362e-19 0.0150881
11.1187 -1 8.67362e-19 -2.11758e-22 8.67362e-19 0.0147967
11.189 -1 0 0 0 0.0145026
11.2594 -1 -8.67362e-19 -2.11758e-22 8.67362e-19 0.014206
11.3298 -1 0 2.11758e-22 2.11758e-22 0.0139067
11.4002 -1 -8.67362e-19 0 8.67362e-19 0.0136047
11.4705 -1 0 2.11758e-22 2.11758e-22 0.0133001
11.5409 -1 8.67362e-19 -2.11758e-22 8.67362e-19 0.0129927
11.6113 -1 0 -2.11758e-22 2.11758e-22 0.0126826
11.6816 -1 8.67362e-19 0 8.67362e-19 0.0123698
11.752 -1 8.67362e-19 2.11758e-22 8.67362e-19 0.0120542
11.8224 -1 0 2.11758e-22 2.11758e-22 0.0117359
11.8928 -1 0 2.11758e-22 2.11758e-22 0.0114148
11.9631 -1 -8.67362e-19 -2.11758e-22 8.67362e-19 0.0110909
12.0335 -1 8.67362e-19 -2.11758e-22 8.67362e-19 0.0107643
12.1039 -1 8.67362e-19 0 8.67362e-19 0.0104349
12.1742 -1 8.67362e-19 0 8.67362e-19 0.0101027
12.2446 -1 0 -2.11758e-22 2.11758e-22 0.00976784
12.315 -1 0 -2.11758e-22 2.11758e-22 0.00943023
12.3854 -1 8.67362e-19 0 8.67362e-19 0.00908992
12.4557 -1 8.67362e-19 2.11758e-22 8.67362e-19 0.00874692
12.5261 -1 0 2.11758e-22 2.11758e-22 0.00840126
12.5965 -1 0 0 0 0.00805297
12.6668 -1 0 2.11758e-22 2.11758e-22 0.00770208
12.7372 -1 8.67362e-19 0 8.67362e-19 0.00734862
12.8076 -1 8.67362e-19 2.11758e-22 8.67362e-19 0.00699264
12.878 -1 8.67362e-19 -2.11758e-22 8.67362e-19 0.00663417
12.9483 -1 -8.67362e-19 2.11758e-22 8.67362e-19 0.00627325
13.0187 -1 0 0 0 0.00590993
13.0891 -1 8.67362e-19 0 8.67362e-19 0.00554425
13.1594 -1 8.67362e-19 2.11758e-22 8.67362e-19 0.00517628
13.2298 -1 8.67362e-19 -2.11758e-22 8.67362e-19 0.00480606
13.3002 -1 0 0 0 0.00443364
13.3706 -1 -8.67362e-19 -2.11758e-22 8.67362e-19 0.00405909
13.4409 -1 -8.67362e-19 2.11758e-22 8.67362e-19 0.00368248
13.5113 -1 0 -1.05879e-22 1.05879e-22 0.00330385
13.5817 -1 8.67362e-19 0 8.67362e-19 0.00292328
13.652 -1 0 1.05879e-22 1.05879e-22 0.00254082
13.7224 -1 0 -1.05879e-22 1.05879e-22 0.00215661
13.7928 -1 0 0 0 0.00177058
13.8632 -1 8.67362e-19 0 8.67362e-19 0.0013831
13.9335 -1 0 -1.05879e-22 1.05879e-22 0.000993537
14.0039 -1 8.67362e-19 0 8.67362e-19 0.000604106
14.0743 -1 0.00476449 -1.95559e-06 0.00476449 0.000205146
0 0.02 0.0767479 -0.000136363 0.076748 0.0220455
0.0703713 0.02 0.0762552 -0.000186687 0.0762555 0.020451
0.140743 0.02 0.0775355 -5.10503e-05 0.0775355 0.0167256
0.211114 0.02 0.0781739 -3.24527e-06 0.0781739 0.0125725
0.281485 0.02 0.0783296 -8.62227e-06 0.0783296 0.00861257
0.351857 0.02 0.0784119 -1.4124e-05 0.0784119 0.00474214
0.422228 0.02 0.0785024 -1.78762e-05 0.0785024 0.000879998
0.492599 0.02 0.0786013 -2.14009e-05 0.0786013 -0.00298299
0.562971 0.02 0.0787141 -2.43767e-05 0.0787141 -0.00685847
0.633342 0.02 0.0788412 -2.68986e-05 0.0788412 -0.0107543
0.703713 0.02 0.0789833 -2.99812e-05 0.0789833 -0.0146745
0.774085 0.02 0.0791427 -3.3974e-05 0.0791427 -0.0186223
0.844456 0.02 0.0793243 -3.89797e-05 0.0793244 -0.0226023
0.914827 0.02 0.0795327 -4.48108e-05 0.0795327 -0.0266207
0.985199 0.02 0.0797736 -5.1807e-05 0.0797736 -0.0306842
1.05557 0.02 0.0800518 -5.99313e-05 0.0800518 -0.0348013
1.12594 0.02 0.080376 -6.99078e-05 0.080376 -0.0389806
1.19631 0.02 0.0807528 -8.15562e-05 0.0807528 -0.0432342
1.26668 0.02 0.0811963 -9.61153e-05 0.0811964 -0.0475742
1.33706 0.02 0.0817152 -0.000113077 0.0817152 -0.0520189
1.40743 0.02 0.0823331 -0.000134881 0.0823332 -0.0565858
1.4778 0.02 0.0830607 -0.000160445 0.0830609 -0.0613039
1.54817 0.02 0.083943 -0.000195116 0.0839432 -0.066198
1.61854 0.02 0.0849915 -0.000236816 0.0849918 -0.071319
1.68891 0.02 0.0863061 -0.000299306 0.0863066 -0.076704
1.75928 0.02 0.0879006 -0.000381825 0.0879015 -0.0824559
1.82965 0.02 0.090048 -0.000537209 0.0900496 -0.0886466
1.90003 0.02 0.092861 -0.000877215 0.0928651 -0.0955303
1.9704 0.02 0.0979165 -0.00238308 0.0979455 -0.103257
2.04077 0.018367 0.098987 -0.00747643 0.099269 -0.112747
2.11114 0.00773744 0.0859437 -0.0141357 0.0870984 -0.120272
2.18151 -0.013435 0.061234 -0.016873 0.0635161 -0.120579
2.25188 -0.0467294 0.0326149 -0.0127379 0.0350141 -0.11398
2.32225 -0.0953622 0.00928563 -0.00418919 0.0101869 -0.10216
2.39263 -0.153229 -0.00263919 0.00224164 0.0034627 -0.0898492
2.463 -0.211095 -0.00649658 0.00493087 0.00815592 -0.0813144
2.53337 -0.268962 -0.00792448 0.00622145 0.0100749 -0.0755709
2.60374 -0.326828 -0.00879345 0.0069382 0.011201 -0.0711636
2.67411 -0.384695 -0.00914144 0.00725246 0.0116689 -0.067822
2.74448 -0.442561 -0.00927812 0.00739559 0.011865 -0.0651894
2.81485 -0.500428 -0.00929925 0.00744786 0.0119141 -0.0630805
2.88522 -0.558294 -0.00928724 0.007474 0.0119211 -0.0613477
2.9556 -0.616161 -0.00928072 0.00749252 0.0119277 -0.0598771
3.02597 -0.674028 -0.00926915 0.00747468 0.0119075 -0.058579
3.09634 -0.731894 -0.00915002 0.00730944 0.0117111 -0.0573801
3.16671 -0.789761 -0.00863078 0.00669749 0.0109246 -0.0562545
3.23708 -0.847611 -0.00786391 0.00549621 0.00959424 -0.0554417
3.30745 -0.895328 -0.00756494 0.0041624 0.00863447 -0.0550554
3.37782 -0.927937 -0.00791939 0.00307378 0.00849499 -0.0548424
3.4482 -0.948536 -0.00863374 0.002156 0.00889886 -0.0546718
3.51857 -0.958645 -0.0098741 0.00137224 0.00996899 -0.0545567
3.58894 -0.96 -0.0117473 0.000847719 0.0117778 -0.0543013
3.65931 -0.96 -0.0135981 0.000607592 0.0136117 -0.0538202
3.72968 -0.96 -0.0150729 0.000505351 0.0150814 -0.0532468
3.80005 -0.96 -0.0163457 0.00044483 0.0163517 -0.0525945
3.87042 -0.96 -0.0174875 0.000402183 0.0174921 -0.0518649
3.94079 -0.96 -0.0185237 0.000368897 0.0185274 -0.0510625
4.01117 -0.96 -0.0194714 0.000340327 0.0194744 -0.0501894
4.08154 -0.96 -0.02034 0.000314298 0.0203425 -0.0492471
4.15191 -0.96 -0.021135 0.000289717 0.0211369 -0.048237
4.22228 -0.96 -0.0218593 0.000265943 0.0218609 -0.0471607
4.29265 -0.96 -0.022515 0.000242558 0.0225163 -0.0460195
4.36302 -0.96 -0.0231029 0.000219096 0.0231039 -0.0448153
4.43339 -0.96 -0.0236234 0.000195322 0.0236242 -0.0435496
4.50377 -0.96 -0.0240765 0.000171274 0.0240771 -0.0422244
4.57414 -0.96 -0.0244616 0.000146861 0.024462 -0.0408415
4.64451 -0.96 -0.0247778 0.000121693 0.0247781 -0.0394031
4.71488 -0.96 -0.0250243 9.54837e-05 0.0250245 -0.0379117
4.78525 -0.96 -0.0251999 6.85454e-05 0.0252 -0.0363697
4.85562 -0.96 -0.0253036 4.14149e-05 0.0253037 -0.0347801
4.92599 -0.96 -0.0253344 1.48478e-05 0.0253344 -0.0331456
4.99636 -0.96 -0.025291 -1.1234e-05 0.025291 -0.0314696
5.06674 -0.96 -0.0251723 -3.75436e-05 0.0251723 -0.0297556
5.13711 -0.96 -0.0249777 -6.4209e-05 0.0249777 -0.0280076
5.20748 -0.96 -0.0247063 -9.11781e-05 0.0247065 -0.0262295
5.27785 -0.96 -0.0243578 -0.00011837 0.0243581 -0.0244256
5.34822 -0.96 -0.0239319 -0.000145693 0.0239323 -0.0226003
5.41859 -0.96 -0.0234285 -0.000173045 0.0234291 -0.0207583
5.48896 -0.96 -0.0228481 -0.000200462 0.022849 -0.0189045
5.55934 -0.96 -0.0221913 -0.000227831 0.0221924 -0.0170438
5.62971 -0.96 -0.0214583 -0.000254925 0.0214598 -0.0151812
5.70008 -0.96 -0.0206509 -0.000281655 0.0206528 -0.0133225
5.77045 -0.96 -0.019772 -0.000307814 0.0197744 -0.011473
5.84082 -0.96 -0.0188243 -0.000333124 0.0188272 -0.00963772
5.91119 -0.96 -0.0178105 -0.000357385 0.0178141 -0.00782207
5.98156 -0.96 -0.0167341 -0.000380428 0.0167384 -0.00603113
6.05193 -0.96 -0.0155986 -0.000402079 0.0156037 -0.00426995
6.12231 -0.96 -0.014408 -0.000422211 0.0144142 -0.00254336
6.19268 -0.96 -0.0131668 -0.000440726 0.0131742 -0.000855958
6.26305 -0.96 -0.0118795 -0.000457517 0.0118884 0.000787883
6.33342 -0.96 -0.0105511 -0.000472487 0.0105616 0.00238411
6.40379 -0.96 -0.00918642 -0.000485556 0.00919925 0.00392899
6.47416 -0.96 -0.00779089 -0.000496665 0.0078067 0.00541915
6.54453 -0.96 -0.00636979 -0.000505773 0.00638984 0.00685162
6.61491 -0.96 -0.00492855 -0.000512859 0.00495517 0.0082238
6.68528 -0.96 -0.00347259 -0.000517923 0.003511 0.00953352
6.75565 -0.96 -0.00200728 -0.00052098 0.00207379 0.0107791
6.82602 -0.96 -0.000537937 -0.000522063 0.000749617 0.0119591
6.89639 -0.96 0.000930284 -0.000521228 0.00106635 0.0130726
6.96676 -0.96 0.00239238 -0.000518551 0.00244793 0.0141193
7.03713 -0.96 0.00384356 -0.00051412 0.0038778 0.015099
7.1075 -0.96 0.00527931 -0.000508036 0.0053037 0.0160119
7.17788 -0.96 0.00669537 -0.000500406 0.00671404 0.0168588
7.24825 -0.96 0.00808778 -0.000491349 0.00810269 0.0176406
7.31862 -0.96 0.00945293 -0.000480991 0.00946516 0.0183585
7.38899 -0.96 0.0107875 -0.000469463 0.0107977 0.0190141
7.45936 -0.96 0.0120886 -0.000456899 0.0120973 0.0196093
7.52973 -0.96 0.0133537 -0.000443437 0.013361 0.0201459
7.6001 -0.96 0.0145804 -0.000429209 0.0145867 0.0206261
7.67048 -0.96 0.015767 -0.000414351 0.0157724 0.0210523
7.74085 -0.96 0.0169118 -0.000398991 0.0169165 0.0214268
7.81122 -0.96 0.0180138 -0.000383252 0.0180179 0.0217522
7.88159 -0.96 0.019072 -0.000367255 0.0190755 0.0220311
7.95196 -0.96 0.0200859 -0.000351109 0.0200889 0.0222658
8.02233 -0.96 0.0210551 -0.000334917 0.0210577 0.0224592
8.0927 -0.96 0.0219796 -0.000318768 0.0219819 0.0226137
8.16307 -0.96 0.0228597 -0.00030275 0.0228617 0.0227318
8.23345 -0.96 0.023696 -0.000287117 0.0236978 0.0228161
8.30382 -0.96 0.0244884 -0.000272455 0.0244899 0.0228686
8.37419 -0.96 0.0252347 -0.000258039 0.025236 0.0228922
8.44456 -0.96 0.0259373 -0.000242996 0.0259384 0.0228908
8.51493 -0.96 0.0266033 -0.000228306 0.0266043 0.0228657
8.5853 -0.96 0.0272354 -0.000214195 0.0272362 0.0228163
8.65567 -0.96 0.0278303 -0.000200513 0.027831 0.0227448
8.72605 -0.96 0.0283877 -0.00018762 0.0283883 0.0226539
8.79642 -0.96 0.0289099 -0.000175421 0.0289104 0.0225455
8.86679 -0.96 0.0293986 -0.000163817 0.029399 0.0224211
8.93716 -0.96 0.0298554 -0.000152805 0.0298558 0.0222821
9.00753 -0.96 0.0302818 -0.000142388 0.0302822 0.0221299
9.0779 -0.96 0.0306796 -0.000132558 0.0306799 0.0219659
9.14827 -0.96 0.0310502 -0.000123306 0.0310504 0.021791
9.21864 -0.96 0.0313952 -0.000114621 0.0313955 0.0216064
9.28902 -0.96 0.0317163 -0.000106487 0.0317164 0.021413
9.35939 -0.96 0.0320147 -9.88897e-05 0.0320149 0.0212116
9.42976 -0.96 0.0322921 -9.18102e-05 0.0322923 0.0210029
9.50013 -0.96 0.0325499 -8.52291e-05 0.03255 0.0207878
9.5705 -0.96 0.0327893 -7.9126e-05 0.0327894 0.0205667
9.64087 -0.96 0.0330117 -7.34793e-05 0.0330118 0.0203402
9.71124 -0.96 0.0332184 -6.82671e-05 0.0332184 0.0201088
9.78162 -0.96 0.0334104 -6.34669e-05 0.0334105 0.0198728
9.85199 -0.96 0.0335891 -5.90562e-05 0.0335891 0.0196327
9.92236 -0.96 0.0337554 -5.50127e-05 0.0337554 0.0193887
9.99273 -0.96 0.0339103 -5.13142e-05 0.0339103 0.0191412
10.0631 -0.96 0.0340548 -4.79388e-05 0.0340548 0.0188902
10.1335 -0.96 0.0341898 -4.48654e-05 0.0341898 0.0186361
10.2038 -0.96 0.0343161 -4.20732e-05 0.0343161 0.018379
10.2742 -0.96 0.0344345 -3.95423e-05 0.0344345 0.018119
10.3446 -0.96 0.0345458 -3.72535e-05 0.0345458 0.0178562
10.415 -0.96 0.0346505 -3.51884e-05 0.0346505 0.0175906
10.4853 -0.96 0.0347493 -3.33294e-05 0.0347493 0.0173224
10.5557 -0.96 0.0348429 -3.16586e-05 0.0348429 0.0170517
10.6261 -0.96 0.0349316 -3.01593e-05 0.0349317 0.0167783
10.6964 -0.96 0.0350161 -2.88174e-05 0.0350161 0.0165024
10.7668 -0.96 0.0350967 -2.76195e-05 0.0350968 0.0162239
10.8372 -0.96 0.0351739 -2.65524e-05 0.0351739 0.0159429
10.9076 -0.96 0.035248 -2.56031e-05 0.0352481 0.0156593
10.9779 -0.96 0.0353194 -2.47599e-05 0.0353194 0.0153732
11.0483 -0.96 0.0353883 -2.40121e-05 0.0353884 0.0150845
11.1187 -0.96 0.0354551 -2.33495e-05 0.0354551 0.0147932
11.189 -0.96 0.03552 -2.27624e-05 0.03552 0.0144993
11.2594 -0.96 0.0355831 -2.2242e-05 0.0355831 0.0142027
11.3298 -0.96 0.0356447 -2.17805e-05 0.0356447 0.0139035
11.4002 -0.96 0.035705 -2.13704e-05 0.035705 0.0136016
11.4705 -0.96 0.035764 -2.10056e-05 0.035764 0.013297
11.5409 -0.96 0.035822 -2.06805e-05 0.035822 0.0129897
11.6113 -0.96 0.0358791 -2.03888e-05 0.0358791 0.0126797
11.6816 -0.96 0.0359352 -2.01237e-05 0.0359352 0.0123669
11.752 -0.96 0.0359907 -1.98796e-05 0.0359907 0.0120513
11.8224 -0.96 0.0360453 -1.96525e-05 0.0360454 0.011733
11.8928 -0.96 0.0360994 -1.94392e-05 0.0360994 0.011412
11.9631 -0.96 0.0361528 -1.92363e-05 0.0361528 0.0110881
12.0335 -0.96 0.0362056 -1.90411e-05 0.0362056 0.0107615
12.1039 -0.96 0.0362579 -1.8851e-05 0.0362579 0.0104322
12.1742 -0.96 0.0363097 -1.86636e-05 0.0363097 0.0101
12.2446 -0.96 0.0363609 -1.84765e-05 0.0363609 0.00976518
12.315 -0.96 0.0364115 -1.82878e-05 0.0364115 0.0094276
12.3854 -0.96 0.0364617 -1.80956e-05 0.0364617 0.00908731
12.4557 -0.96 0.0365113 -1.78982e-05 0.0365113 0.00874434
12.5261 -0.96 0.0365604 -1.76942e-05 0.0365604 0.00839871
12.5965 -0.96 0.0366089 -1.74822e-05 0.0366089 0.00805045
12.6668 -0.96 0.0366568 -1.72612e-05 0.0366568 0.00769959
12.7372 -0.96 0.0367041 -1.703e-05 0.0367041 0.00734617
12.8076 -0.96 0.0367508 -1.67879e-05 0.0367508 0.00699022
12.878 -0.96 0.0367968 -1.65338e-05 0.0367968 0.00663178
12.9483 -0.96 0.0368422 -1.62672e-05 0.0368422 0.0062709
13.0187 -0.96 0.0368868 -1.59871e-05 0.0368868 0.00590761
13.0891 -0.96 0.0369306 -1.56931e-05 0.0369306 0.00554198
13.1594 -0.96 0.0369736 -1.53842e-05 0.0369736 0.00517405
13.2298 -0.96 0.0370158 -1.506e-05 0.0370158 0.00480387
13.3002 -0.96 0.037057 -1.47203e-05 0.037057 0.00443151
13.3706 -0.96 0.0370974 -1.43636e-05 0.0370974 0.00405701
13.4409 -0.96 0.0371368 -1.39926e-05 0.0371368 0.00368044
13.5113 -0.96 0.0371751 -1.36002e-05 0.0371751 0.00330186
13.5817 -0.96 0.0372124 -1.32013e-05 0.0372124 0.00292136
13.652 -0.96 0.0372485 -1.27649e-05 0.0372485 0.00253896
13.7224 -0.96 0.0372836 -1.23632e-05 0.0372836 0.00215481
13.7928 -0.96 0.0373172 -1.19049e-05 0.0373172 0.00176883
13.8632 -0.96 0.0373503 -1.18785e-05 0.0373503 0.00138142
13.9335 -0.96 0.0373801 -1.2273e-05 0.0373801 0.000991833
14.0039 -0.96 0.0374161 -1.56239e-05 0.0374161 0.000602795
14.0743 -0.96 0.0374391 -1.88524e-05 0.0374391 0.00020473
0 0.04 0.151162 -0.000216982 0.151162 0.0221138
0.0703713 0.04 0.15007 -0.000371415 0.150071 0.0204618
0.140743 0.04 0.151864 -0.000214604 0.151864 0.0166742
0.211114 0.04 0.152973 -8.88457e-05 0.152973 0.0125334
0.281485 0.04 0.153336 -5.31976e-05 0.153336 0.00859582
0.351857 0.04 0.15353 -5.10151e-05 0.15353 0.00473183
0.422228 0.04 0.153714 -5.69309e-05 0.153714 0.000870627
0.492599 0.04 0.153905 -6.51668e-05 0.153905 -0.00299276
0.562971 0.04 0.154117 -7.32304e-05 0.154117 -0.00686912
0.633342 0.04 0.154353 -8.0896e-05 0.154353 -0.0107661
0.703713 0.04 0.154615 -9.01828e-05 0.154615 -0.0146876
0.774085 0.04 0.154909 -0.000102003 0.154909 -0.0186371
0.844456 0.04 0.155242 -0.000116731 0.155242 -0.022619
0.914827 0.04 0.155623 -0.00013411 0.155624 -0.0266399
0.985199 0.04 0.156064 -0.000154898 0.156064 -0.0307063
1.05557 0.04 0.156571 -0.000179236 0.156572 -0.0348269
1.12594 0.04 0.157162 -0.000208796 0.157163 -0.0390103
1.19631 0.04 0.157848 -0.000243645 0.157848 -0.0432688
1.26668 0.04 0.158655 -0.000286566 0.158655 -0.0476146
1.33706 0.04 0.159597 -0.000337284 0.159597 -0.0520665
1.40743 0.04 0.160718 -0.00040109 0.160719 -0.0566419
1.4778 0.04 0.162035 -0.0004774 0.162035 -0.0613707
1.54817 0.04 0.16363 -0.000577521 0.163631 -0.0662776
1.61854 0.04 0.165518 -0.000701303 0.165519 -0.0714158
1.68891 0.04 0.167882 -0.000876758 0.167884 -0.0768212
1.75928 0.04 0.170722 -0.00111417 0.170726 -0.0826031
1.82965 0.04 0.174534 -0.00151134 0.17454 -0.0888257
1.90003 0.04 0.179281 -0.00232767 0.179296 -0.0957649
1.9704 0.04 0.187454 -0.00496981 0.187519 -0.103344
2.04077 0.0384003 0.189209 -0.0131241 0.189664 -0.111917
2.11114 0.0279877 0.167974 -0.0241232 0.169697 -0.118451
2.18151 0.00724739 0.126408 -0.0297102 0.129853 -0.118775
2.25188 -0.0253676 0.0752931 -0.0244067 0.0791501 -0.113205
2.32225 -0.0730079 0.0302747 -0.010693 0.0321076 -0.102683
2.39263 -0.129693 0.00416538 0.00100745 0.00428548 -0.0909259
2.463 -0.186379 -0.00639763 0.00672993 0.00928556 -0.0823103
2.53337 -0.243065 -0.0108046 0.00966671 0.0144977 -0.0764216
2.60374 -0.29975 -0.0133585 0.011369 0.0175415 -0.0718917
2.67411 -0.356436 -0.0146768 0.0122309 0.019105 -0.0684408
2.74448 -0.413121 -0.0153787 0.0126911 0.0199391 -0.0657213
2.81485 -0.469807 -0.0157314 0.0129295 0.020363 -0.0635416
2.88522 -0.526493 -0.0159158 0.0130764 0.0205987 -0.061755
2.9556 -0.583178 -0.0160355 0.0131797 0.0207567 -0.0602484
3.02597 -0.639864 -0.0161164 0.0132048 0.0208352 -0.058935
3.09634 -0.696549 -0.0160702 0.0130023 0.0206715 -0.0577443
3.16671 -0.753235 -0.0155184 0.0121468 0.019707 -0.0566134
3.23708 -0.809904 -0.0146963 0.0103871 0.0179964 -0.0557254
3.30745 -0.856648 -0.0146111 0.00828632 0.0167973 -0.0552238
3.37782 -0.888592 -0.0155164 0.0064007 0.0167848 -0.0549131
3.4482 -0.90877 -0.0170209 0.00474007 0.0176686 -0.0546608
3.51857 -0.918673 -0.0192992 0.00332598 0.0195837 -0.0544649
3.58894 -0.92 -0.0224228 0.00236105 0.0225468 -0.0541615
3.65931 -0.92 -0.0255093 0.00185356 0.0255765 -0.0536845
3.72968 -0.92 -0.0280841 0.00157307 0.0281281 -0.0531303
3.80005 -0.92 -0.0303415 0.00138661 0.0303731 -0.0524922
3.87042 -0.92 -0.0323619 0.00124953 0.032386 -0.0517738
3.94079 -0.92 -0.0341852 0.00113908 0.0342042 -0.0509809
4.01117 -0.92 -0.0358403 0.001043 0.0358554 -0.0501163
4.08154 -0.92 -0.0373437 0.000955204 0.0373559 -0.0491817
4.15191 -0.92 -0.0387055 0.000872324 0.0387153 -0.0481789
4.22228 -0.92 -0.0399319 0.000792323 0.0399398 -0.0471096
4.29265 -0.92 -0.0410269 0.000713862 0.0410331 -0.0459753
4.36302 -0.92 -0.0419925 0.00063565 0.0419973 -0.0447777
4.43339 -0.92 -0.0428297 0.000557 0.0428333 -0.0435186
4.50377 -0.92 -0.0435386 0.00047787 0.0435413 -0.0421998
4.57414 -0.92 -0.044119 0.000398022 0.0441208 -0.0408234
4.64451 -0.92 -0.0445698 0.000317185 0.044571 -0.0393914
4.71488 -0.92 -0.0448898 0.000235193 0.0448904 -0.0379062
4.78525 -0.92 -0.0450772 0.000152057 0.0450775 -0.0363705
4.85562 -0.92 -0.0451308 6.80433e-05 0.0451309 -0.034787
4.92599 -0.92 -0.0450493 -1.61617e-05 0.0450493 -0.0331591
4.99636 -0.92 -0.0448314 -0.000100584 0.0448315 -0.03149
5.06674 -0.92 -0.0444758 -0.000185831 0.0444762 -0.029783
5.13711 -0.92 -0.0439815 -0.000271935 0.0439824 -0.028042
5.20748 -0.92 -0.0433479 -0.000358705 0.0433494 -0.0262708
5.27785 -0.92 -0.0425745 -0.000445886 0.0425768 -0.0244739
5.34822 -0.92 -0.0416616 -0.000533175 0.041665 -0.0226555
5.41859 -0.92 -0.0406098 -0.000620228 0.0406145 -0.0208203
5.48896 -0.92 -0.0394204 -0.000706847 0.0394268 -0.0189732
5.55934 -0.92 -0.038095 -0.000792663 0.0381032 -0.0171189
5.62971 -0.92 -0.0366347 -0.000877108 0.0366452 -0.0152626
5.70008 -0.92 -0.0350435 -0.000959742 0.0350566 -0.0134099
5.77045 -0.92 -0.0333267 -0.00104002 0.0333429 -0.0115661
5.84082 -0.92 -0.0314896 -0.00111733 0.0315094 -0.00973637
5.91119 -0.92 -0.0295375 -0.00119115 0.0295615 -0.0079259
5.98156 -0.92 -0.0274766 -0.001261 0.0275055 -0.00613983
6.05193 -0.92 -0.0253138 -0.00132646 0.0253485 -0.00438318
6.12231 -0.92 -0.0230564 -0.00138717 0.0230981 -0.00266076
6.19268 -0.92 -0.0207124 -0.00144279 0.0207626 -0.000977148
6.26305 -0.92 -0.0182901 -0.001493 0.0183509 0.000663315
6.33342 -0.92 -0.015798 -0.00153753 0.0158727 0.00225659
6.40379 -0.92 -0.0132453 -0.00157617 0.0133388 0.00379895
6.47416 -0.92 -0.0106412 -0.00160875 0.0107622 0.00528704
6.54453 -0.92 -0.00799518 -0.00163517 0.00816068 0.00671787
6.61491 -0.92 -0.00531664 -0.00165539 0.00556839 0.00808887
6.68528 -0.92 -0.00261511 -0.00166941 0.00310254 0.00939786
6.75565 -0.92 0.000100012 -0.0016773 0.00168028 0.0106431
6.82602 -0.92 0.00281949 -0.00167917 0.00328164 0.0118232
6.89639 -0.92 0.00553434 -0.0016752 0.00578232 0.0129373
6.96676 -0.92 0.00823586 -0.00166564 0.0084026 0.0139849
7.03713 -0.92 0.0109157 -0.00165073 0.0110399 0.0149659
7.1075 -0.92 0.0135661 -0.00163078 0.0136638 0.0158805
7.17788 -0.92 0.0161796 -0.00160613 0.0162592 0.0167294
7.24825 -0.92 0.0187494 -0.00157712 0.0188156 0.0175135
7.31862 -0.92 0.021269 -0.00154413 0.021325 0.018234
7.38899 -0.92 0.0237329 -0.00150757 0.0237807 0.0188925
7.45936 -0.92 0.0261358 -0.00146784 0.026177 0.0194907
7.52973 -0.92 0.0284732 -0.00142534 0.0285089 0.0200306
7.6001 -0.92 0.0307413 -0.00138048 0.0307723 0.0205143
7.67048 -0.92 0.0329366 -0.00133366 0.0329636 0.0209441
7.74085 -0.92 0.0350565 -0.00128526 0.0350801 0.0213223
7.81122 -0.92 0.0370988 -0.00123568 0.0371194 0.0216516
7.88159 -0.92 0.0390619 -0.00118526 0.0390799 0.0219343
7.95196 -0.92 0.0409448 -0.00113433 0.0409605 0.022173
8.02233 -0.92 0.0427468 -0.00108323 0.0427605 0.0223703
8.0927 -0.92 0.0444678 -0.00103222 0.0444798 0.0225287
8.16307 -0.92 0.0461082 -0.000981563 0.0461186 0.0226508
8.23345 -0.92 0.0476687 -0.000931695 0.0476778 0.022739
8.30382 -0.92 0.0491496 -0.000883505 0.0491575 0.0227956
8.37419 -0.92 0.0505485 -0.000836265 0.0505555 0.0228231
8.44456 -0.92 0.0518677 -0.000789232 0.0518737 0.0228252
8.51493 -0.92 0.0531175 -0.000743842 0.0531227 0.0228035
8.5853 -0.92 0.0543032 -0.000699872 0.0543077 0.0227576
8.65567 -0.92 0.0554215 -0.000656896 0.0554254 0.0226893
8.72605 -0.92 0.0564717 -0.000615766 0.0564751 0.0226017
8.79642 -0.92 0.0574572 -0.000576599 0.0574601 0.0224965
8.86679 -0.92 0.058381 -0.000539273 0.0583834 0.0223751
8.93716 -0.92 0.0592457 -0.000503769 0.0592479 0.022239
9.00753 -0.92 0.0600543 -0.000470095 0.0600561 0.0220896
9.0779 -0.92 0.0608095 -0.000438243 0.060811 0.0219282
9.14827 -0.92 0.0615141 -0.000408191 0.0615155 0.0217558
9.21864 -0.92 0.062171 -0.000379911 0.0621722 0.0215736
9.28902 -0.92 0.0627829 -0.000353363 0.0627839 0.0213823
9.35939 -0.92 0.0633525 -0.000328504 0.0633534 0.021183
9.42976 -0.92 0.0638825 -0.000305281 0.0638832 0.0209764
9.50013 -0.92 0.0643754 -0.000283639 0.064376 0.020763
9.5705 -0.92 0.0648336 -0.000263517 0.0648341 0.0205437
9.64087 -0.92 0.0652596 -0.000244852 0.0652601 0.0203188
9.71124 -0.92 0.0656557 -0.000227577 0.0656561 0.0200888
9.78162 -0.92 0.066024 -0.000211625 0.0660243 0.0198543
9.85199 -0.92 0.0663666 -0.000196928 0.0663669 0.0196155
9.92236 -0.92 0.0666855 -0.000183416 0.0666858 0.0193727
9.99273 -0.92 0.0669826 -0.000171023 0.0669828 0.0191262
10.0631 -0.92 0.0672596 -0.000159679 0.0672598 0.0188763
10.1335 -0.92 0.0675183 -0.000149321 0.0675185 0.0186231
10.2038 -0.92 0.0677601 -0.000139882 0.0677603 0.0183668
10.2742 -0.92 0.0679866 -0.0001313 0.0679867 0.0181076
10.3446 -0.92 0.0681991 -0.000123514 0.0681992 0.0178455
10.415 -0.92 0.0683989 -0.000116468 0.068399 0.0175806
10.4853 -0.92 0.0685871 -0.000110105 0.0685872 0.017313
10.5557 -0.92 0.0687649 -0.000104371 0.068765 0.0170428
10.6261 -0.92 0.0689333 -9.92159e-05 0.0689333 0.0167699
10.6964 -0.92 0.0690931 -9.45882e-05 0.0690932 0.0164944
10.7668 -0.92 0.0692454 -9.0443e-05 0.0692454 0.0162163