Variables = x, y, u, v, umag, p
ZONE I= 51 J= 51 F=point
0 0 -7.93132e-06 5.984e-06 9.9355e-06 -0.00794649
0.02 0 0 -8.47033e-22 8.47033e-22 -0.0106266
0.04 0 -3.38813e-21 2.11758e-22 3.39474e-21 -0.0107461
0.06 0 0 0 0 -0.0109599
0.08 0 0 0 0 -0.011228
0.1 0 0 0 0 -0.0115165
0.12 0 2.71051e-20 0 2.71051e-20 -0.0118011
0.14 0 -2.71051e-20 0 2.71051e-20 -0.0120641
0.16 0 5.42101e-20 -6.77626e-21 5.4632e-20 -0.0122928
0.18 0 5.42101e-20 0 5.42101e-20 -0.0124786
0.2 0 0 6.77626e-21 6.77626e-21 -0.0126158
0.22 0 0 0 0 -0.0127008
0.24 0 0 -6.77626e-21 6.77626e-21 -0.0127314
0.26 0 0 -6.77626e-21 6.77626e-21 -0.012706
0.28 0 1.0842e-19 6.77626e-21 1.08632e-19 -0.012624
0.3 0 -2.1684e-19 0 2.1684e-19 -0.012485
0.32 0 2.1684e-19 0 2.1684e-19 -0.0122888
0.34 0 0 0 0 -0.0120359
0.36 0 2.1684e-19 0 2.1684e-19 -0.0117268
0.38 0 0 6.77626e-21 6.77626e-21 -0.011363
0.4 0 -2.1684e-19 0 2.1684e-19 -0.0109464
0.42 0 0 -3.38813e-21 3.38813e-21 -0.01048
0.44 0 0 0 0 -0.00996766
0.46 0 2.1684e-19 0 2.1684e-19 -0.00941459
0.48 0 0 0 0 -0.00882725
0.5 0 0 -4.23516e-22 4.23516e-22 -0.00821343
0.52 0 2.1684e-19 0 2.1684e-19 -0.00758226
0.54 0 -2.1684e-19 -1.69407e-21 2.16847e-19 -0.00694414
0.56 0 0 -3.38813e-21 3.38813e-21 -0.00631051
0.58 0 0 -3.38813e-21 3.38813e-21 -0.00569366
0.6 0 0 6.77626e-21 6.77626e-21 -0.00510636
0.62 0 -2.1684e-19 0 2.1684e-19 -0.00456148
0.64 0 2.1684e-19 -6.77626e-21 2.16946e-19 -0.00407151
0.66 0 -2.1684e-19 0 2.1684e-19 -0.00364805
0.68 0 0 6.77626e-21 6.77626e-21 -0.00330128
0.7 0 -2.1684e-19 0 2.1684e-19 -0.00303945
0.72 0 1.0842e-19 0 1.0842e-19 -0.00286835
0.74 0 0 1.35525e-20 1.35525e-20 -0.00279095
0.76 0 0 1.35525e-20 1.35525e-20 -0.002807
0.78 0 0 6.77626e-21 6.77626e-21 -0.00291281
0.8 0 0 -6.77626e-21 6.77626e-21 -0.00310113
0.82 0 0 0 0 -0.00336112
0.84 0 1.35525e-20 0 1.35525e-20 -0.00367839
0.86 0 -1.35525e-20 -6.77626e-21 1.51522e-20 -0.00403513
0.88 0 0 0 0 -0.00441022
0.9 0 6.77626e-21 1.69407e-21 6.98481e-21 -0.00477946
0.92 0 6.77626e-21 2.11758e-22 6.77957e-21 -0.0051162
0.94 0 0 0 0 -0.00539152
0.96 0 0 0 0 -0.00556843
0.98 0 -4.23516e-22 -8.47033e-22 9.47012e-22 -0.00560653
1 0 -2.08817e-06 -7.2578e-06 7.55223e-06 -0.00418969
0 0.02 0 0 0 -0.0105712
0.02 0.02 5.90895e-05 -3.88322e-05 7.07072e-05 -0.0106022
0.04 0.02 7.45857e-05 9.8829e-06 7.52376e-05 -0.0107154
0.06 0.02 -5.42785e-06 9.68462e-05 9.69982e-05 -0.0109124
0.08 0.02 -0.000211013 0.000193525 0.000286319 -0.0111575
0.1 0.02 -0.00054418 0.000286463 0.000614974 -0.0114214
0.12 0.02 -0.000995045 0.000369428 0.00106141 -0.0116825
0.14 0.02 -0.00154894 0.000439874 0.00161019 -0.0119244
0.16 0.02 -0.00218931 0.000497266 0.00224507 -0.0121352
0.18 0.02 -0.00289935 0.000542085 0.0029496 -0.0123065
0.2 0.02 -0.00366302 0.000575249 0.00370791 -0.0124328
0.22 0.02 -0.00446532 0.000597785 0.00450515 -0.0125101
0.24 0.02 -0.00529244 0.000610648 0.00532755 -0.0125361
0.26 0.02 -0.00613161 0.000614627 0.00616234 -0.0125093
0.28 0.02 -0.00697089 0.00061031 0.00699756 -0.0124287
0.3 0.02 -0.00779897 0.000598078 0.00782187 -0.0122938
0.32 0.02 -0.00860486 0.000578131 0.00862426 -0.0121044
0.34 0.02 -0.0093778 0.00055053 0.00939395 -0.0118609
0.36 0.02 -0.010107 0.000515244 0.0101202 -0.0115639
0.38 0.02 -0.0107818 0.000472217 0.0107921 -0.0112147
0.4 0.02 -0.0113913 0.000421418 0.0113991 -0.0108152
0.42 0.02 -0.0119249 0.000362908 0.0119304 -0.0103682
0.44 0.02 -0.0123721 0.000296893 0.0123756 -0.00987767
0.46 0.02 -0.0127229 0.000223778 0.0127249 -0.00934851
0.48 0.02 -0.0129682 0.000144203 0.012969 -0.00878692
0.5 0.02 -0.0130999 5.90839e-05 0.0131 -0.00820038
0.52 0.02 -0.0131113 -3.03776e-05 0.0131114 -0.00759763
0.54 0.02 -0.0129979 -0.000122683 0.0129985 -0.00698854
0.56 0.02 -0.0127572 -0.00021605 0.012759 -0.00638403
0.58 0.02 -0.0123893 -0.000308443 0.0123931 -0.00579575
0.6 0.02 -0.0118973 -0.000397619 0.011904 -0.00523581
0.62 0.02 -0.0112875 -0.000481193 0.0112978 -0.00471638
0.64 0.02 -0.0105693 -0.000556718 0.010584 -0.00424925
0.66 0.02 -0.00975556 -0.000621781 0.00977536 -0.00384534
0.68 0.02 -0.00886204 -0.000674106 0.00888765 -0.00351418
0.7 0.02 -0.00790756 -0.000711659 0.00793952 -0.00326347
0.72 0.02 -0.00691336 -0.000732754 0.00695209 -0.00309856
0.74 0.02 -0.00590264 -0.000736151 0.00594837 -0.00302209
0.76 0.02 -0.00489988 -0.000721136 0.00495266 -0.00303362
0.78 0.02 -0.00393008 -0.000687588 0.00398978 -0.00312951
0.8 0.02 -0.00301794 -0.000636029 0.00308424 -0.00330269
0.82 0.02 -0.00218695 -0.000567653 0.00225943 -0.00354274
0.84 0.02 -0.00145844 -0.000484375 0.00153677 -0.00383595
0.86 0.02 -0.000850557 -0.000388893 0.000935246 -0.00416545
0.88 0.02 -0.000377121 -0.000284858 0.000472614 -0.00451142
0.9 0.02 -4.61434e-05 -0.000177229 0.000183138 -0.00485135
0.92 0.02 0.00014171 -7.29159e-05 0.000159369 -0.0051609
0.94 0.02 0.000194742 1.81217e-05 0.000195584 -0.00541464
0.96 0.02 0.000139777 8.00597e-05 0.000161081 -0.00557995
0.98 0.02 5.18535e-05 8.54617e-05 9.99625e-05 -0.00561506
1 0.02 0 0 0 -0.00559454
0 0.04 0 0 0 -0.0104664
0.02 0.04 1.93863e-05 -3.97082e-05 4.41879e-05 -0.0105033
0.04 0.04 -6.27011e-05 0.00011431 0.000130377 -0.0106168
0.06 0.04 -0.000324376 0.000355509 0.000481256 -0.0107924
0.08 0.04 -0.000800701 0.000621107 0.00101336 -0.011002
0.1 0.04 -0.00149327 0.000878569 0.00173255 -0.0112254
0.12 0.04 -0.00238798 0.00111113 0.00263383 -0.0114461
0.14 0.04 -0.00346227 0.00131099 0.00370216 -0.0116508
0.16 0.04 -0.00468926 0.00147565 0.00491596 -0.0118292
0.18 0.04 -0.00604072 0.0016055 0.00625043 -0.011974
0.2 0.04 -0.00748873 0.00170233 0.00767978 -0.0120799
0.22 0.04 -0.00900655 0.00176847 0.00917853 -0.0121429
0.24 0.04 -0.0105689 0.00180619 0.0107221 -0.0121607
0.26 0.04 -0.0121521 0.00181748 0.0122872 -0.0121315
0.28 0.04 -0.0137334 0.00180386 0.0138514 -0.0120541
0.3 0.04 -0.0152914 0.00176635 0.0153931 -0.0119279
0.32 0.04 -0.016805 0.00170556 0.0168913 -0.0117526
0.34 0.04 -0.0182537 0.00162175 0.0183256 -0.0115282
0.36 0.04 -0.0196171 0.00151496 0.0196756 -0.0112555
0.38 0.04 -0.020875 0.00138519 0.0209209 -0.0109353
0.4 0.04 -0.0220073 0.00123255 0.0220418 -0.0105697
0.42 0.04 -0.0229943 0.00105743 0.0230186 -0.0101611
0.44 0.04 -0.023817 0.000860635 0.0238325 -0.00971307
0.46 0.04 -0.0244576 0.000643533 0.024466 -0.0092302
0.48 0.04 -0.0248998 0.000408169 0.0249031 -0.00871813
0.5 0.04 -0.0251295 0.000157342 0.02513 -0.00818366
0.52 0.04 -0.0251358 -0.000105347 0.025136 -0.00763474
0.54 0.04 -0.0249107 -0.000375485 0.0249135 -0.00708034
0.56 0.04 -0.0244509 -0.000647895 0.0244595 -0.00653031
0.58 0.04 -0.0237576 -0.000916713 0.0237752 -0.00599519
0.6 0.04 -0.022837 -0.00117553 0.0228673 -0.00548589
0.62 0.04 -0.0217013 -0.00141759 0.0217475 -0.00501335
0.64 0.04 -0.020368 -0.00163597 0.0204336 -0.00458814
0.66 0.04 -0.0188604 -0.00182389 0.0189484 -0.00422
0.68 0.04 -0.0172075 -0.00197499 0.0173205 -0.00391739
0.7 0.04 -0.0154429 -0.0020836 0.0155828 -0.00368707
0.72 0.04 -0.0136048 -0.00214505 0.0137728 -0.00353363
0.74 0.04 -0.0117344 -0.00215592 0.0119308 -0.0034592
0.76 0.04 -0.00987521 -0.00211433 0.010099 -0.00346313
0.78 0.04 -0.00807165 -0.00202005 0.00832059 -0.00354183
0.8 0.04 -0.00636728 -0.00187472 0.00663753 -0.00368868
0.82 0.04 -0.00480341 -0.00168195 0.00508937 -0.00389411
0.84 0.04 -0.00341732 -0.00144743 0.00371122 -0.0041457
0.86 0.04 -0.00224039 -0.00117917 0.00253175 -0.00442842
0.88 0.04 -0.00129602 -0.000887881 0.00157098 -0.00472494
0.9 0.04 -0.0005972 -0.000587793 0.000837943 -0.005016
0.92 0.04 -0.000143889 -0.000298092 0.000331003 -0.00528142
0.94 0.04 7.93444e-05 -4.52014e-05 9.13165e-05 -0.0055016
0.96 0.04 0.000112828 0.000133145 0.000174522 -0.00565137
0.98 0.04 5.35264e-05 0.000178022 0.000185895 -0.00568975
1 0.04 0 0 0 -0.00567475
0 0.06 0 0 0 -0.0102655
0.02 0.06 -6.66202e-05 5.17374e-05 8.43505e-05 -0.0103203
0.04 0.06 -0.000305185 0.000395486 0.000499547 -0.010458
0.06 0.06 -0.000809094 0.000874272 0.00119121 -0.0106358
0.08 0.06 -0.00160224 0.00139158 0.00212219 -0.0108315
0.1 0.06 -0.00267926 0.00189332 0.00328072 -0.0110332
0.12 0.06 -0.00402127 0.00234932 0.00465724 -0.0112288
0.14 0.06 -0.00559968 0.00274423 0.00623596 -0.0114082
0.16 0.06 -0.00738026 0.00307206 0.00799411 -0.0115634
0.18 0.06 -0.00932648 0.00333223 0.00990389 -0.0116884
0.2 0.06 -0.0114016 0.00352708 0.0119347 -0.0117786
0.22 0.06 -0.0135696 0.00366022 0.0140546 -0.0118308
0.24 0.06 -0.015796 0.00373544 0.0162317 -0.0118428
0.26 0.06 -0.0180479 0.00375618 0.0184346 -0.0118127
0.28 0.06 -0.0202935 0.00372515 0.0206326 -0.0117396
0.3 0.06 -0.0225023 0.0036443 0.0227955 -0.0116225
0.32 0.06 -0.0246445 0.00351483 0.0248939 -0.0114611
0.34 0.06 -0.0266909 0.00333737 0.0268988 -0.0112552
0.36 0.06 -0.0286127 0.00311226 0.0287815 -0.0110053
0.38 0.06 -0.0303814 0.00283977 0.0305138 -0.0107122
0.4 0.06 -0.0319689 0.00252046 0.0320682 -0.0103775
0.42 0.06 -0.0333482 0.00215549 0.0334178 -0.0100033
0.44 0.06 -0.0344932 0.00174683 0.0345374 -0.00959283
0.46 0.06 -0.0353796 0.00129762 0.0354034 -0.00915009
0.48 0.06 -0.0359858 0.000812286 0.0359949 -0.00868021
0.5 0.06 -0.0362931 0.000296752 0.0362943 -0.00818937
0.52 0.06 -0.0362872 -0.000241519 0.036288 -0.0076848
0.54 0.06 -0.0359584 -0.000793511 0.0359671 -0.0071747
0.56 0.06 -0.0353028 -0.00134875 0.0353286 -0.00666814
0.58 0.06 -0.034323 -0.00189547 0.0343753 -0.0061748
0.6 0.06 -0.0330284 -0.0024209 0.033117 -0.00570476
0.62 0.06 -0.031436 -0.00291162 0.0315705 -0.00526812
0.64 0.06 -0.0295702 -0.003354 0.0297598 -0.00487465
0.66 0.06 -0.0274631 -0.00373471 0.0277158 -0.00453337
0.68 0.06 -0.0251538 -0.00404125 0.0254764 -0.0042521
0.7 0.06 -0.0226883 -0.00426254 0.0230852 -0.00403705
0.72 0.06 -0.0201178 -0.0043895 0.0205911 -0.00389245
0.74 0.06 -0.017498 -0.00441553 0.0180465 -0.00382018
0.76 0.06 -0.0148874 -0.00433703 0.0155063 -0.00381957
0.78 0.06 -0.0123456 -0.00415378 0.0130257 -0.00388722
0.8 0.06 -0.00993105 -0.00386925 0.0106582 -0.00401698
0.82 0.06 -0.007699 -0.00349086 0.00845345 -0.00420004
0.84 0.06 -0.00569928 -0.00303029 0.0064548 -0.0044251
0.86 0.06 -0.00397368 -0.0025038 0.00469671 -0.00467872
0.88 0.06 -0.00255336 -0.00193293 0.00320248 -0.00494565
0.9 0.06 -0.00145592 -0.00134564 0.00198253 -0.00520932
0.92 0.06 -0.000682299 -0.000778474 0.00103516 -0.00545271
0.94 0.06 -0.000214271 -0.00027953 0.000352206 -0.00565965
0.96 0.06 -8.2049e-06 8.76493e-05 8.80325e-05 -0.00581127
0.98 0.06 2.66841e-05 0.000231241 0.000232776 -0.00587659
1 0.06 0 0 0 -0.00588272
0 0.08 0 0 0 -0.0100049
0.02 0.08 -0.000170272 0.000274295 0.000322847 -0.0100857
0.04 0.08 -0.000592876 0.000902404 0.00107974 -0.010265
0.06 0.08 -0.00137193 0.00169549 0.00218102 -0.0104629
0.08 0.08 -0.00251019 0.00253129 0.0035649 -0.0106617
0.1 0.08 -0.00398931 0.00333715 0.00520108 -0.0108572
0.12 0.08 -0.00578315 0.00407018 0.00707186 -0.0110414
0.14 0.08 -0.00785669 0.00470721 0.0091589 -0.0112068
0.16 0.08 -0.0101692 0.00523812 0.011439 -0.0113479
0.18 0.08 -0.0126774 0.0056608 0.0138839 -0.0114601
0.2 0.08 -0.0153376 0.00597772 0.0164613 -0.0115402
0.22 0.08 -0.0181064 0.00619346 0.0191364 -0.0115857
0.24 0.08 -0.0209419 0.00631325 0.0218728 -0.0115948
0.26 0.08 -0.0238034 0.00634193 0.0246338 -0.0115659
0.28 0.08 -0.0266517 0.00628348 0.0273824 -0.0114982
0.3 0.08 -0.0294485 0.00614082 0.030082 -0.0113906
0.32 0.08 -0.0321566 0.0059159 0.0326962 -0.0112427
0.34 0.08 -0.0347392 0.0056099 0.0351892 -0.0110542
0.36 0.08 -0.0371602 0.00522364 0.0375255 -0.0108253
0.38 0.08 -0.0393841 0.00475797 0.0396705 -0.0105564
0.4 0.08 -0.0413762 0.00421428 0.0415903 -0.0102487
0.42 0.08 -0.043103 0.00359493 0.0432527 -0.00990405
0.44 0.08 -0.0445327 0.00290371 0.0446272 -0.00952505
0.46 0.08 -0.0456357 0.00214625 0.0456861 -0.00911528
0.48 0.08 -0.046386 0.00133028 0.046405 -0.0086793
0.5 0.08 -0.0467614 0.000465888 0.0467637 -0.00822271
0.52 0.08 -0.0467449 -0.000434392 0.0467469 -0.00775216
0.54 0.08 -0.0463256 -0.00135558 0.0463454 -0.00727526
0.56 0.08 -0.0454993 -0.00228042 0.0455564 -0.00680049
0.58 0.08 -0.0442697 -0.00318968 0.0443845 -0.006337
0.6 0.08 -0.042649 -0.00406256 0.042842 -0.00589436
0.62 0.08 -0.0406579 -0.00487731 0.0409494 -0.00548221
0.64 0.08 -0.0383265 -0.0056119 0.0387352 -0.00510995
0.66 0.08 -0.0356938 -0.00624481 0.036236 -0.00478625
0.68 0.08 -0.0328073 -0.00675595 0.0334957 -0.00451873
0.7 0.08 -0.0297224 -0.00712751 0.030565 -0.00431343
0.72 0.08 -0.026501 -0.0073449 0.0275 -0.00417453
0.74 0.08 -0.0232105 -0.0073976 0.0243609 -0.00410396
0.76 0.08 -0.0199215 -0.00727989 0.02121 -0.00410121
0.78 0.08 -0.0167058 -0.00699157 0.0181098 -0.00416316
0.8 0.08 -0.0136343 -0.00653843 0.015121 -0.00428413
0.82 0.08 -0.0107738 -0.00593278 0.0122993 -0.00445596
0.84 0.08 -0.00818496 -0.00519378 0.00969376 -0.00466827
0.86 0.08 -0.00591872 -0.00434804 0.00734416 -0.00490882
0.88 0.08 -0.00401372 -0.00343034 0.00527989 -0.00516397
0.9 0.08 -0.00249313 -0.00248504 0.0035201 -0.00541922
0.92 0.08 -0.00136148 -0.00156841 0.0020769 -0.00565972
0.94 0.08 -0.000601663 -0.00075168 0.000962819 -0.0058711
0.96 0.08 -0.000173355 -0.000124182 0.000213244 -0.00604091
0.98 0.08 -9.34322e-06 0.0001923 0.000192527 -0.00615631
1 0.08 0 0 0 -0.00619858
0 0.1 0 0 0 -0.00971849
0.02 0.1 -0.000278649 0.000640697 0.000698668 -0.00982919
0.04 0.1 -0.000895697 0.00165481 0.00188167 -0.0100589
0.06 0.1 -0.00196466 0.00283811 0.00345178 -0.0102868
0.08 0.1 -0.00346195 0.00405225 0.00532971 -0.0104988
0.1 0.1 -0.00535199 0.00521123 0.00746999 -0.0106976
0.12 0.1 -0.00759882 0.0062623 0.00984674 -0.010879
0.14 0.1 -0.0101598 0.00717576 0.0124384 -0.011038
0.16 0.1 -0.0129876 0.00793781 0.0152212 -0.0111713
0.18 0.1 -0.0160327 0.00854485 0.0181676 -0.0112761
0.2 0.1 -0.0192454 0.00899927 0.0212455 -0.0113504
0.22 0.1 -0.0225764 0.00930651 0.0244194 -0.0113926
0.24 0.1 -0.0259776 0.00947298 0.0276509 -0.0114015
0.26 0.1 -0.0294021 0.00950485 0.0309003 -0.0113759
0.28 0.1 -0.0328042 0.00940729 0.0341265 -0.011315
0.3 0.1 -0.0361394 0.00918421 0.0372882 -0.011218
0.32 0.1 -0.039364 0.00883835 0.0403441 -0.0110841
0.34 0.1 -0.042435 0.00837158 0.0432529 -0.0109129
0.36 0.1 -0.0453101 0.00778538 0.0459741 -0.0107042
0.38 0.1 -0.0479479 0.00708145 0.048468 -0.0104581
0.4 0.1 -0.0503078 0.00626234 0.0506961 -0.0101754
0.42 0.1 -0.0523512 0.00533209 0.052622 -0.00985745
0.44 0.1 -0.0540412 0.00429683 0.0542117 -0.00950627
0.46 0.1 -0.055344 0.00316531 0.0554345 -0.00912494
0.48 0.1 -0.0562298 0.00194932 0.0562636 -0.00871747
0.5 0.1 -0.0566735 0.000663971 0.0566774 -0.00828891
0.52 0.1 -0.0566557 -0.000672173 0.0566597 -0.00784541
0.54 0.1 -0.0561643 -0.00203713 0.0562012 -0.00739408
0.56 0.1 -0.0551946 -0.00340574 0.0552996 -0.006943
0.58 0.1 -0.0537512 -0.00475007 0.0539607 -0.00650095
0.6 0.1 -0.0518478 -0.00604008 0.0521984 -0.00607723
0.62 0.1 -0.0495083 -0.00724439 0.0500355 -0.00568128
0.64 0.1 -0.0467669 -0.00833128 0.0475032 -0.0053224
0.66 0.1 -0.0436678 -0.00926983 0.0446409 -0.00500926
0.68 0.1 -0.0402651 -0.0100311 0.0414959 -0.00474953
0.7 0.1 -0.0366219 -0.0105896 0.0381222 -0.00454939
0.72 0.1 -0.0328087 -0.0109242 0.0345796 -0.00441322
0.74 0.1 -0.0289024 -0.0110197 0.0309319 -0.00434322
0.76 0.1 -0.0249838 -0.0108679 0.0272452 -0.00433919
0.78 0.1 -0.0211354 -0.0104684 0.0235859 -0.0043984
0.8 0.1 -0.0174388 -0.00982966 0.0200184 -0.00451566
0.82 0.1 -0.0139715 -0.0089693 0.0166028 -0.0046834
0.84 0.1 -0.010804 -0.00791499 0.013393 -0.00489199
0.86 0.1 -0.00799649 -0.00670487 0.0104355 -0.00513015
0.88 0.1 -0.00559573 -0.00538839 0.00776833 -0.00538548
0.9 0.1 -0.00363206 -0.00402758 0.00542339 -0.00564505
0.92 0.1 -0.00211617 -0.00269922 0.00342986 -0.00589556
0.94 0.1 -0.00103547 -0.00149747 0.00182061 -0.00612352
0.96 0.1 -0.000357584 -0.00053597 0.000644306 -0.00632269
0.98 0.1 -4.76827e-05 3.82178e-05 6.11084e-05 -0.00650066
1 0.1 0 0 0 -0.00658613
0 0.12 0 0 0 -0.00943272
0.02 0.12 -0.000385781 0.00115242 0.00121527 -0.00957457
0.04 0.12 -0.00119797 0.00265835 0.00291581 -0.00985861
0.06 0.12 -0.00255961 0.00430976 0.00501255 -0.0101224
0.08 0.12 -0.00441892 0.00596081 0.00742011 -0.010354
0.1 0.12 -0.00672057 0.00751787 0.0100839 -0.0105629
0.12 0.12 -0.0094168 0.00892203 0.0129722 -0.0107479
0.14 0.12 -0.0124561 0.0101393 0.0160612 -0.0109065
0.16 0.12 -0.0157839 0.0111535 0.019327 -0.0110372
0.18 0.12 -0.0193448 0.0119602 0.0227435 -0.0111392
0.2 0.12 -0.0230835 0.0125618 0.0262801 -0.0112117
0.22 0.12 -0.0269455 0.0129646 0.0299022 -0.011254
0.24 0.12 -0.0308776 0.0131763 0.0335714 -0.0112654
0.26 0.12 -0.0348276 0.0132042 0.0372467 -0.0112454
0.28 0.12 -0.0387449 0.0130547 0.0408851 -0.0111931
0.3 0.12 -0.0425795 0.0127325 0.0444424 -0.0111078
0.32 0.12 -0.0462824 0.0122414 0.0478739 -0.0109887
0.34 0.12 -0.0498055 0.0115837 0.0511349 -0.0108351
0.36 0.12 -0.0531014 0.010762 0.054181 -0.0106463
0.38 0.12 -0.0561235 0.0097789 0.0569691 -0.0104221
0.4 0.12 -0.0588267 0.00863844 0.0594576 -0.0101628
0.42 0.12 -0.0611676 0.00734667 0.0616072 -0.00986916
0.44 0.12 -0.0631052 0.00591251 0.0633816 -0.00954273
0.46 0.12 -0.0646021 0.00434835 0.0647483 -0.00918597
0.48 0.12 -0.0656248 0.00267061 0.0656791 -0.00880234
0.5 0.12 -0.0661456 0.000900088 0.0661517 -0.0083964
0.52 0.12 -0.0661429 -0.000937899 0.0661495 -0.0079738
0.54 0.12 -0.0656028 -0.00281356 0.0656631 -0.00754128
0.56 0.12 -0.0645201 -0.00469294 0.0646905 -0.00710661
0.58 0.12 -0.062899 -0.0065385 0.0632379 -0.00667838
0.6 0.12 -0.0607542 -0.00830993 0.0613199 -0.00626579
0.62 0.12 -0.0581114 -0.00996518 0.0589597 -0.00587833
0.64 0.12 -0.0550075 -0.0114618 0.0561889 -0.00552543
0.66 0.12 -0.0514905 -0.0127582 0.0530475 -0.00521601
0.68 0.12 -0.0476195 -0.0138158 0.0495832 -0.00495806
0.7 0.12 -0.0434635 -0.0145999 0.0458502 -0.00475818
0.72 0.12 -0.0391005 -0.0150823 0.0419085 -0.00462118
0.74 0.12 -0.0346152 -0.0152422 0.0378224 -0.00454972
0.76 0.12 -0.0300976 -0.0150682 0.0336588 -0.00454411
0.78 0.12 -0.0256398 -0.0145593 0.0294852 -0.00460212
0.8 0.12 -0.0213336 -0.0137264 0.0253681 -0.00471906
0.82 0.12 -0.0172668 -0.0125929 0.0213711 -0.00488792
0.84 0.12 -0.0135201 -0.0111951 0.0175534 -0.0050997
0.86 0.12 -0.0101637 -0.00958342 0.0139693 -0.00534383
0.88 0.12 -0.00725359 -0.00782273 0.0106682 -0.0056088
0.9 0.12 -0.00482927 -0.00599326 0.00769682 -0.00588282
0.92 0.12 -0.00290996 -0.00419243 0.00510337 -0.0061535
0.94 0.12 -0.00149036 -0.00253659 0.00294201 -0.0064075
0.96 0.12 -0.000549155 -0.00116182 0.00128507 -0.00664403
0.98 0.12 -8.65955e-05 -0.000236185 0.00025156 -0.00688998
1 0.12 0 0 0 -0.00702051
0 0.14 0 0 0 -0.00916937
0.02 0.14 -0.000488881 0.00180625 0.00187124 -0.00934224
0.04 0.14 -0.00149145 0.00391056 0.00418532 -0.00968158
0.06 0.14 -0.00314089 0.00610895 0.0068691 -0.00998424
0.08 0.14 -0.00535728 0.00825507 0.00984107 -0.0102397
0.1 0.14 -0.00806449 0.0102531 0.0130446 -0.0104634
0.12 0.14 -0.0112017 0.012042 0.0164465 -0.0106569
0.14 0.14 -0.0147076 0.0135862 0.0200224 -0.0108197
0.16 0.14 -0.0185199 0.0148689 0.0237502 -0.0109524
0.18 0.14 -0.022577 0.0158857 0.0276057 -0.0110557
0.2 0.14 -0.0268183 0.01664 0.0315613 -0.0111301
0.22 0.14 -0.0311849 0.0171392 0.0355844 -0.0111756
0.24 0.14 -0.035619 0.0173922 0.0396384 -0.0111925
0.26 0.14 -0.0400643 0.0174075 0.0436826 -0.0111804
0.28 0.14 -0.0444657 0.0171926 0.0476738 -0.0111387
0.3 0.14 -0.0487691 0.0167534 0.0515665 -0.0110667
0.32 0.14 -0.0529214 0.016094 0.0553144 -0.0109634
0.34 0.14 -0.0568699 0.0152181 0.0588708 -0.0108278
0.36 0.14 -0.0605631 0.0141287 0.0621893 -0.0106589
0.38 0.14 -0.0639503 0.0128298 0.0652246 -0.010456
0.4 0.14 -0.0669824 0.0113272 0.0679334 -0.0102188
0.42 0.14 -0.0696119 0.00962901 0.0702747 -0.00994752
0.44 0.14 -0.0717944 0.00774733 0.0722112 -0.00964313
0.46 0.14 -0.0734888 0.00569852 0.0737094 -0.00930749
0.48 0.14 -0.0746587 0.00350401 0.0747409 -0.00894351
0.5 0.14 -0.0752732 0.00119075 0.0752826 -0.00855521
0.52 0.14 -0.0753084 -0.00120868 0.0753181 -0.00814784
0.54 0.14 -0.0747484 -0.0036561 0.0748377 -0.0077278
0.56 0.14 -0.0735862 -0.00610814 0.0738392 -0.00730267
0.58 0.14 -0.0718251 -0.00851693 0.0723283 -0.00688095
0.6 0.14 -0.0694796 -0.0108311 0.0703187 -0.00647194
0.62 0.14 -0.0665756 -0.0129969 0.0678324 -0.00608534
0.64 0.14 -0.0631516 -0.0149602 0.0648994 -0.00573095
0.66 0.14 -0.0592579 -0.016668 0.0615575 -0.00541817
0.68 0.14 -0.0549572 -0.0180704 0.0578518 -0.00515556
0.7 0.14 -0.0503232 -0.019123 0.0538341 -0.00495039
0.72 0.14 -0.0454397 -0.0197888 0.0495618 -0.00480815
0.74 0.14 -0.0403989 -0.0200407 0.0450966 -0.00473219
0.76 0.14 -0.035299 -0.019863 0.0405038 -0.00472349
0.78 0.14 -0.0302415 -0.0192536 0.0358504 -0.00478045
0.8 0.14 -0.0253284 -0.0182253 0.031204 -0.00489897
0.82 0.14 -0.0206582 -0.0168066 0.0266313 -0.00507257
0.84 0.14 -0.0163228 -0.0150431 0.0221975 -0.00529275
0.86 0.14 -0.0124034 -0.0129973 0.017966 -0.00554945
0.88 0.14 -0.00896734 -0.0107498 0.013999 -0.00583171
0.9 0.14 -0.00606483 -0.00839926 0.01036 -0.00612839
0.92 0.14 -0.00372592 -0.00606359 0.00711686 -0.00642751
0.94 0.14 -0.00195479 -0.00388063 0.00434517 -0.0067152
0.96 0.14 -0.00074295 -0.00200749 0.00214056 -0.0069952
0.98 0.14 -0.000125431 -0.000630366 0.000642724 -0.00731181
1 0.14 0 0 0 -0.00748756
0 0.16 0 0 0 -0.00894693
0.02 0.16 -0.000586711 0.00259657 0.00266203 -0.00914991
0.04 0.16 -0.00177192 0.00540399 0.00568707 -0.00954374
0.06 0.16 -0.00369945 0.00822773 0.00902117 -0.00988633
0.08 0.16 -0.00626238 0.0109265 0.0125939 -0.010168
0.1 0.16 -0.00936376 0.0134071 0.0163533 -0.0104095
0.12 0.16 -0.0129292 0.0156102 0.0202693 -0.0106148
0.14 0.16 -0.0168869 0.0175017 0.0243203 -0.0107855
0.16 0.16 -0.0211666 0.0190662 0.0284876 -0.0109239
0.18 0.16 -0.0257004 0.0203008 0.0327511 -0.0110321
0.2 0.16 -0.0304228 0.0212107 0.0370869 -0.0111116
0.22 0.16 -0.0352704 0.0218048 0.0414663 -0.0111636
0.24 0.16 -0.0401817 0.0220936 0.0458552 -0.0111887
0.26 0.16 -0.0450968 0.0220872 0.0502152 -0.011187
0.28 0.16 -0.0499572 0.0217939 0.0545041 -0.0111581
0.3 0.16 -0.0547055 0.0212207 0.0586771 -0.0111011
0.32 0.16 -0.059285 0.0203725 0.0626877 -0.0110149
0.34 0.16 -0.0636398 0.0192538 0.0664886 -0.0108982
0.36 0.16 -0.0677149 0.0178686 0.0700328 -0.0107495
0.38 0.16 -0.0714562 0.016222 0.0732745 -0.0105677
0.4 0.16 -0.0748112 0.0143216 0.0761697 -0.0103518
0.42 0.16 -0.0777291 0.0121779 0.0786772 -0.0101015
0.44 0.16 -0.080162 0.00980615 0.0807595 -0.009817
0.46 0.16 -0.0820656 0.00722691 0.0823832 -0.00949963
0.48 0.16 -0.0834004 0.00446683 0.0835199 -0.00915169
0.5 0.16 -0.0841323 0.0015592 0.0841467 -0.0087767
0.52 0.16 -0.0842344 -0.00145585 0.084247 -0.00837947
0.54 0.16 -0.083688 -0.00453141 0.0838106 -0.00796616
0.56 0.16 -0.0824837 -0.00761424 0.0828344 -0.00754417
0.58 0.16 -0.0806228 -0.0106456 0.0813226 -0.00712207
0.6 0.16 -0.0781179 -0.0135623 0.0792864 -0.00670933
0.62 0.16 -0.0749942 -0.0162985 0.0767449 -0.00631606
0.64 0.16 -0.07129 -0.0187871 0.0737239 -0.0059526
0.66 0.16 -0.0670567 -0.0209624 0.0702569 -0.00562905
0.68 0.16 -0.0623591 -0.0227624 0.0663837 -0.00535482
0.7 0.16 -0.0572745 -0.0241314 0.0621506 -0.00513805
0.72 0.16 -0.0518917 -0.0250224 0.0576097 -0.00498518
0.74 0.16 -0.0463094 -0.0254006 0.0528181 -0.00490051
0.76 0.16 -0.0406339 -0.0252449 0.0478374 -0.00488587
0.78 0.16 -0.0349763 -0.0245507 0.0427326 -0.00494047
0.8 0.16 -0.029449 -0.0233319 0.0375716 -0.00506087
0.82 0.16 -0.0241626 -0.0216218 0.0324243 -0.00524115
0.84 0.16 -0.0192212 -0.0194743 0.0273624 -0.00547323
0.86 0.16 -0.0147189 -0.0169643 0.0224596 -0.00574735
0.88 0.16 -0.0107359 -0.0141879 0.017792 -0.00605281
0.9 0.16 -0.00733551 -0.0112624 0.0134406 -0.00637872
0.92 0.16 -0.00456049 -0.0083261 0.00949326 -0.00671293
0.94 0.16 -0.00242618 -0.00553812 0.00604625 -0.00704051
0.96 0.16 -0.000937853 -0.00307594 0.00321574 -0.0073689
0.98 0.16 -0.000164036 -0.00114293 0.00115464 -0.00775819
1 0.16 0 0 0 -0.00797917
0 0.18 0 0 0 -0.00878138
0.02 0.18 -0.000678734 0.00351646 0.00358136 -0.0090131
0.04 0.18 -0.00203715 0.00712817 0.00741356 -0.00945947
0.06 0.18 -0.00422999 0.0106539 0.0114629 -0.00984165
0.08 0.18 -0.00712497 0.0139619 0.0156748 -0.0101504
0.1 0.18 -0.010605 0.0169657 0.0200075 -0.0104115
0.12 0.18 -0.014582 0.0196112 0.0244384 -0.0106311
0.14 0.18 -0.0189738 0.0218688 0.0289526 -0.0108124
0.16 0.18 -0.023702 0.0237266 0.0335371 -0.0109593
0.18 0.18 -0.0286923 0.025185 0.0381776 -0.0110753
0.2 0.18 -0.0338743 0.0262518 0.0428558 -0.0111631
0.22 0.18 -0.0391807 0.0269384 0.0475479 -0.0112245
0.24 0.18 -0.0445467 0.0272573 0.0522242 -0.0112606
0.26 0.18 -0.0499095 0.0272201 0.0568497 -0.0112719
0.28 0.18 -0.0552079 0.0268365 0.0613849 -0.0112581
0.3 0.18 -0.0603817 0.0261144 0.0657869 -0.0112181
0.32 0.18 -0.0653718 0.0250595 0.0700104 -0.0111507
0.34 0.18 -0.0701196 0.0236771 0.0740092 -0.0110542
0.36 0.18 -0.0745673 0.021972 0.0777371 -0.0109266
0.38 0.18 -0.0786582 0.0199507 0.0811489 -0.0107661
0.4 0.18 -0.0823368 0.0176222 0.0842015 -0.0105713
0.42 0.18 -0.0855495 0.0149997 0.0868545 -0.0103411
0.44 0.18 -0.0882453 0.0121014 0.0890712 -0.0100751
0.46 0.18 -0.0903766 0.0089519 0.0908188 -0.00977378
0.48 0.18 -0.0919004 0.00558317 0.0920698 -0.00943897
0.5 0.18 -0.0927794 0.00203484 0.0928017 -0.00907361
0.52 0.18 -0.092983 -0.00164535 0.0929975 -0.00868211
0.54 0.18 -0.0924888 -0.00540164 0.0926464 -0.00827032
0.56 0.18 -0.091284 -0.00917073 0.0917435 -0.00784557
0.58 0.18 -0.0893664 -0.0128826 0.0902902 -0.0074165
0.6 0.18 -0.0867458 -0.0164618 0.088294 -0.0069929
0.62 0.18 -0.0834449 -0.0198294 0.0857686 -0.0065854
0.64 0.18 -0.0795003 -0.0229046 0.0827341 -0.00620506
0.66 0.18 -0.0749632 -0.025608 0.0792164 -0.00586289
0.68 0.18 -0.0698989 -0.0278639 0.0752479 -0.00556935
0.7 0.18 -0.0643872 -0.0296037 0.0708667 -0.00533376
0.72 0.18 -0.0585212 -0.0307691 0.066117 -0.00516375
0.74 0.18 -0.0524055 -0.0313154 0.0610491 -0.00506483
0.76 0.18 -0.0461544 -0.0312147 0.0557188 -0.00503995
0.78 0.18 -0.0398888 -0.0304586 0.0501881 -0.00508929
0.8 0.18 -0.033733 -0.0290604 0.0445243 -0.00521025
0.82 0.18 -0.0278101 -0.0270571 0.0388006 -0.00539748
0.84 0.18 -0.0222386 -0.0245105 0.0330956 -0.00564331
0.86 0.18 -0.0171273 -0.0215073 0.0274937 -0.00593812
0.88 0.18 -0.0125714 -0.0181591 0.0220861 -0.00627119
0.9 0.18 -0.00864958 -0.0146019 0.0169714 -0.00663151
0.92 0.18 -0.00541901 -0.0109947 0.0122576 -0.00700627
0.94 0.18 -0.00290772 -0.00751817 0.00806087 -0.00737892
0.96 0.18 -0.00113536 -0.00437065 0.00451571 -0.00775999
0.98 0.18 -0.000202754 -0.00177339 0.00178494 -0.00822423
1 0.18 0 0 0 -0.00849088
0 0.2 0 0 0 -0.00868679
0.02 0.2 -0.000764685 0.00455831 0.00462201 -0.0089456
0.04 0.2 -0.00228584 0.0090708 0.00935438 -0.00944187
0.06 0.2 -0.00472912 0.0133724 0.014184 -0.00986237
0.08 0.2 -0.00793874 0.0173445 0.019075 -0.0101982
0.1 0.2 -0.0117785 0.0209109 0.024 -0.0104797
0.12 0.2 -0.0161473 0.0240263 0.0289482 -0.010715
0.14 0.2 -0.0209527 0.0266678 0.0339145 -0.0109089
0.16 0.2 -0.0261081 0.0288297 0.0388945 -0.0110668
0.18 0.2 -0.0315331 0.030517 0.043882 -0.0111933
0.2 0.2 -0.0371528 0.0317417 0.0488658 -0.0112921
0.22 0.2 -0.0428961 0.0325184 0.0538287 -0.0113657
0.24 0.2 -0.0486955 0.0328621 0.0587467 -0.0114157
0.26 0.2 -0.0544858 0.0327862 0.0635896 -0.0114427
0.28 0.2 -0.0602036 0.0323022 0.068322 -0.0114464
0.3 0.2 -0.0657868 0.0314186 0.0729043 -0.0114258
0.32 0.2 -0.0711744 0.0301424 0.077294 -0.0113793
0.34 0.2 -0.0763059 0.0284792 0.0814473 -0.0113046
0.36 0.2 -0.0811216 0.0264349 0.08532 -0.0111994
0.38 0.2 -0.0855623 0.0240169 0.0888691 -0.0110613
0.4 0.2 -0.0895704 0.0212358 0.0920533 -0.0108879
0.42 0.2 -0.0930895 0.0181069 0.0948341 -0.0106777
0.44 0.2 -0.0960657 0.0146514 0.0971766 -0.0104293
0.46 0.2 -0.0984484 0.0108978 0.0990497 -0.0101427
0.48 0.2 -0.100191 0.00688291 0.100427 -0.00981884
0.5 0.2 -0.101252 0.00265258 0.101286 -0.00946018
0.52 0.2 -0.101596 -0.00173805 0.101611 -0.00907063
0.54 0.2 -0.101198 -0.00622444 0.101389 -0.00865576
0.56 0.2 -0.100038 -0.0107332 0.100612 -0.00822279
0.58 0.2 -0.098111 -0.0151828 0.0992789 -0.00778048
0.6 0.2 -0.0954216 -0.0194852 0.0973908 -0.007339
0.62 0.2 -0.0919886 -0.0235476 0.0949547 -0.0069096
0.64 0.2 -0.0878456 -0.0272748 0.0919824 -0.00650421
0.66 0.2 -0.0830413 -0.0305721 0.0884901 -0.00613496
0.68 0.2 -0.0776407 -0.0333487 0.0844998 -0.00581358
0.7 0.2 -0.0717248 -0.0355214 0.0800388 -0.00555083
0.72 0.2 -0.0653897 -0.0370185 0.0751411 -0.00535587
0.74 0.2 -0.0587458 -0.0377834 0.0698474 -0.00523568
0.76 0.2 -0.0519153 -0.0377792 0.0642064 -0.00519463
0.78 0.2 -0.0450295 -0.0369914 0.0582753 -0.00523415
0.8 0.2 -0.038225 -0.0354312 0.0521203 -0.00535261
0.82 0.2 -0.0316398 -0.0331379 0.045817 -0.0055454
0.84 0.2 -0.025408 -0.0301799 0.0394512 -0.00580522
0.86 0.2 -0.0196556 -0.0266552 0.0331186 -0.0061225
0.88 0.2 -0.0144953 -0.0226908 0.0269255 -0.00648626
0.9 0.2 -0.010023 -0.0184414 0.0209892 -0.00688502
0.92 0.2 -0.00631266 -0.0140877 0.0154374 -0.00730491
0.94 0.2 -0.0034063 -0.00983299 0.0104063 -0.00772724
0.96 0.2 -0.00133861 -0.00589774 0.00604774 -0.0081651
0.98 0.2 -0.00024229 -0.00252317 0.00253478 -0.00870735
1 0.2 0 0 0 -0.00902088
0 0.22 0 0 0 -0.00867576
0.02 0.22 -0.000844362 0.00571408 0.00577613 -0.00895984
0.04 0.22 -0.00251703 0.0112183 0.0114972 -0.00950287
0.06 0.22 -0.00519431 0.0163661 0.0171706 -0.00995982
0.08 0.22 -0.00869892 0.0210549 0.0227812 -0.010322
0.1 0.22 -0.0128769 0.0252222 0.0283191 -0.0106241
0.12 0.22 -0.0176149 0.0288338 0.0337886 -0.010876
0.14 0.22 -0.0228106 0.0318767 0.0391976 -0.0110841
0.16 0.22 -0.0283696 0.0343531 0.044553 -0.0112549
0.18 0.22 -0.0342059 0.0362746 0.0498588 -0.0113943
0.2 0.22 -0.0402401 0.0376584 0.0551128 -0.0115067
0.22 0.22 -0.0463979 0.0385233 0.060306 -0.0115953
0.24 0.22 -0.0526094 0.0388876 0.0654216 -0.0116619
0.26 0.22 -0.0588075 0.038767 0.0704357 -0.0117074
0.28 0.22 -0.0649272 0.0381745 0.0753183 -0.0117315
0.3 0.22 -0.0709054 0.0371202 0.0800342 -0.0117329
0.32 0.22 -0.0766795 0.0356115 0.0845454 -0.0117096
0.34 0.22 -0.0821879 0.0336549 0.0888116 -0.011659