Variables = x, y, u, v, umag, p
ZONE I= 51 J= 51 F=point
0 0 -7.18196e-06 6.54934e-06 9.71979e-06 0.00656785
0.02 0 0 8.47033e-22 8.47033e-22 0.00872928
0.04 0 0 -1.05879e-22 1.05879e-22 0.0086177
0.06 0 3.38813e-21 0 3.38813e-21 0.0084072
0.08 0 0 0 0 0.00813175
0.1 0 0 0 0 0.00783151
0.12 0 -2.71051e-20 -3.38813e-21 2.7316e-20 0.00753859
0.14 0 0 6.77626e-21 6.77626e-21 0.00727164
0.16 0 5.42101e-20 -6.77626e-21 5.4632e-20 0.00704064
0.18 0 0 -6.77626e-21 6.77626e-21 0.00685366
0.2 0 0 0 0 0.00671824
0.22 0 0 0 0 0.00664078
0.24 0 0 6.77626e-21 6.77626e-21 0.0066167
0.26 0 0 0 0 0.00663936
0.28 0 0 0 0 0.00671752
0.3 0 0 0 0 0.00685867
0.32 0 0 0 0 0.00706033
0.34 0 0 0 0 0.00732024
0.36 0 0 0 0 0.00763737
0.38 0 0 0 0 0.0080106
0.4 0 0 0 0 0.00843803
0.42 0 -2.1684e-19 0 2.1684e-19 0.00891679
0.44 0 0 3.38813e-21 3.38813e-21 0.00944296
0.46 0 -2.1684e-19 3.38813e-21 2.16867e-19 0.0100114
0.48 0 2.1684e-19 0 2.1684e-19 0.0106156
0.5 0 0 1.05879e-22 1.05879e-22 0.0112462
0.52 0 0 0 0 0.0118967
0.54 0 0 0 0 0.0125592
0.56 0 2.1684e-19 0 2.1684e-19 0.0132181
0.58 0 -2.1684e-19 -3.38813e-21 2.16867e-19 0.0138588
0.6 0 2.1684e-19 0 2.1684e-19 0.0144685
0.62 0 -2.1684e-19 6.77626e-21 2.16946e-19 0.0150347
0.64 0 -2.1684e-19 -6.77626e-21 2.16946e-19 0.0155448
0.66 0 -2.1684e-19 0 2.1684e-19 0.0159868
0.68 0 0 0 0 0.01635
0.7 0 1.0842e-19 0 1.0842e-19 0.0166231
0.72 0 -1.0842e-19 0 1.0842e-19 0.016796
0.74 0 1.0842e-19 0 1.0842e-19 0.0168713
0.76 0 0 0 0 0.0168627
0.78 0 0 0 0 0.0167708
0.8 0 5.42101e-20 -6.77626e-21 5.4632e-20 0.0165899
0.82 0 0 -6.77626e-21 6.77626e-21 0.0163288
0.84 0 0 -6.77626e-21 6.77626e-21 0.0160052
0.86 0 3.38813e-21 6.77626e-21 7.57609e-21 0.0156366
0.88 0 0 -3.38813e-21 3.38813e-21 0.0152436
0.9 0 0 -1.69407e-21 1.69407e-21 0.0148544
0.92 0 -6.77626e-21 2.11758e-22 6.77957e-21 0.0145007
0.94 0 0 0 0 0.014217
0.96 0 6.77626e-21 1.69407e-21 6.98481e-21 0.014041
0.98 0 4.23516e-22 0 4.23516e-22 0.013997
1 0 -3.39194e-06 -5.95622e-06 6.85433e-06 0.0105069
0 0.02 0 0 0 0.00878235
0.02 0.02 5.30752e-05 -4.60943e-05 7.0297e-05 0.00875438
0.04 0.02 6.78414e-05 -1.78357e-06 6.78649e-05 0.0086478
0.06 0.02 -8.01778e-06 8.11928e-05 8.15877e-05 0.0084529
0.08 0.02 -0.000210882 0.000171408 0.000271757 0.00820145
0.1 0.02 -0.000547388 0.000256276 0.00060441 0.00792835
0.12 0.02 -0.0010064 0.000332005 0.00105974 0.00766106
0.14 0.02 -0.00156997 0.000397209 0.00161944 0.00741627
0.16 0.02 -0.00222051 0.000451188 0.00226589 0.00720376
0.18 0.02 -0.00294197 0.000494073 0.00298317 0.0070316
0.2 0.02 -0.00371793 0.000526668 0.00375505 0.00690723
0.22 0.02 -0.00452967 0.000549874 0.00456292 0.00683682
0.24 0.02 -0.00536108 0.000563445 0.0053906 0.00681662
0.26 0.02 -0.00620522 0.000566786 0.00623105 0.00684132
0.28 0.02 -0.00705551 0.000561244 0.00707779 0.00691916
0.3 0.02 -0.00789779 0.000548749 0.00791683 0.00705659
0.32 0.02 -0.00871742 0.000529846 0.0087335 0.00725129
0.34 0.02 -0.00950318 0.000504262 0.00951655 0.00750143
0.36 0.02 -0.0102448 0.000471657 0.0102556 0.00780617
0.38 0.02 -0.0109315 0.000431837 0.0109401 0.00816444
0.4 0.02 -0.0115526 0.000384725 0.011559 0.00857436
0.42 0.02 -0.0120971 0.000330341 0.0121016 0.00903315
0.44 0.02 -0.0125544 0.000268886 0.0125572 0.00953699
0.46 0.02 -0.0129143 0.0002007 0.0129159 0.0100809
0.48 0.02 -0.0131676 0.000126251 0.0131682 0.0106584
0.5 0.02 -0.013307 4.57622e-05 0.013307 0.0112608
0.52 0.02 -0.0133253 -3.90391e-05 0.0133254 0.0118824
0.54 0.02 -0.013215 -0.000125589 0.0132156 0.0125148
0.56 0.02 -0.0129723 -0.000212825 0.0129741 0.0131429
0.58 0.02 -0.0125989 -0.000299758 0.0126025 0.0137534
0.6 0.02 -0.0120989 -0.000384455 0.012105 0.0143346
0.62 0.02 -0.0114785 -0.000464422 0.0114879 0.0148744
0.64 0.02 -0.0107473 -0.000537185 0.0107607 0.0153606
0.66 0.02 -0.00991775 -0.000600443 0.00993591 0.0157822
0.68 0.02 -0.00900535 -0.000652262 0.00902894 0.016129
0.7 0.02 -0.00802914 -0.000691037 0.00805882 0.0163911
0.72 0.02 -0.0070149 -0.000714773 0.00705122 0.016559
0.74 0.02 -0.00599177 -0.000720189 0.00603489 0.0166343
0.76 0.02 -0.00498067 -0.00070493 0.00503031 0.0166295
0.78 0.02 -0.00399658 -0.00067011 0.00405237 0.0165464
0.8 0.02 -0.00306279 -0.000618224 0.00312456 0.0163801
0.82 0.02 -0.00220898 -0.000551373 0.00227675 0.0161391
0.84 0.02 -0.00145984 -0.000471908 0.00153422 0.0158407
0.86 0.02 -0.00083418 -0.000382677 0.000917768 0.0155016
0.88 0.02 -0.000347996 -0.000286594 0.000450818 0.0151409
0.9 0.02 -1.2105e-05 -0.000186786 0.000187178 0.0147838
0.92 0.02 0.000171917 -8.80322e-05 0.000193146 0.0144586
0.94 0.02 0.000215408 1.21384e-06 0.000215412 0.0141964
0.96 0.02 0.000152981 6.44884e-05 0.000166018 0.0140314
0.98 0.02 6.05042e-05 7.32246e-05 9.49873e-05 0.0139914
1 0.02 0 0 0 0.0140051
0 0.04 0 0 0 0.00888797
0.02 0.04 1.19201e-05 -5.53428e-05 5.6612e-05 0.00885412
0.04 0.04 -7.2071e-05 8.98041e-05 0.000115148 0.00874618
0.06 0.04 -0.000332199 0.000324241 0.000464207 0.00857224
0.08 0.04 -0.000809937 0.000580572 0.000996525 0.00835987
0.1 0.04 -0.00151049 0.000827498 0.00172231 0.00813288
0.12 0.04 -0.00241858 0.00105094 0.00263704 0.00791041
0.14 0.04 -0.00350878 0.00124424 0.00372286 0.00770549
0.16 0.04 -0.0047533 0.00140469 0.00495651 0.00752696
0.18 0.04 -0.00612435 0.00153231 0.00631313 0.0073825
0.2 0.04 -0.0075929 0.00162872 0.00776562 0.00727911
0.22 0.04 -0.0091278 0.00169604 0.00928403 0.00722218
0.24 0.04 -0.0107019 0.00173498 0.0108416 0.0072092
0.26 0.04 -0.0122982 0.00174576 0.0124215 0.00723731
0.28 0.04 -0.0138997 0.00173091 0.0140071 0.00731367
0.3 0.04 -0.0154816 0.00169342 0.0155739 0.00744285
0.32 0.04 -0.0170189 0.00163433 0.0170972 0.00762296
0.34 0.04 -0.0184905 0.00155355 0.0185557 0.00785293
0.36 0.04 -0.0198761 0.00145074 0.019929 0.00813228
0.38 0.04 -0.0211555 0.00132572 0.021197 0.00846009
0.4 0.04 -0.0223083 0.00117854 0.0223394 0.00883461
0.42 0.04 -0.0233145 0.00100946 0.0233364 0.00925328
0.44 0.04 -0.024155 0.000819184 0.0241688 0.00971244
0.46 0.04 -0.0248115 0.000608839 0.024819 0.0102074
0.48 0.04 -0.0252682 0.000379867 0.025271 0.0107317
0.5 0.04 -0.025511 0.000134476 0.0255114 0.0112796
0.52 0.04 -0.0255269 -0.000122148 0.0255272 0.0118457
0.54 0.04 -0.0253051 -0.000384628 0.0253081 0.0124199
0.56 0.04 -0.0248416 -0.000649564 0.0248501 0.0129894
0.58 0.04 -0.0241388 -0.000912225 0.024156 0.0135431
0.6 0.04 -0.023204 -0.00116633 0.0232333 0.0140707
0.62 0.04 -0.0220495 -0.00140499 0.0220942 0.0145608
0.64 0.04 -0.020693 -0.00162126 0.0207564 0.0150025
0.66 0.04 -0.019158 -0.00180845 0.0192432 0.015386
0.68 0.04 -0.0174732 -0.00196053 0.0175828 0.0157025
0.7 0.04 -0.0156731 -0.00207215 0.0158095 0.0159438
0.72 0.04 -0.013801 -0.00213802 0.0139656 0.0161019
0.74 0.04 -0.0119049 -0.00215212 0.0120979 0.0161767
0.76 0.04 -0.0100251 -0.00211059 0.0102449 0.0161785
0.78 0.04 -0.00819445 -0.00201476 0.0084385 0.0161108
0.8 0.04 -0.00645423 -0.00186872 0.00671932 0.0159705
0.82 0.04 -0.00485323 -0.00167721 0.00513487 0.0157652
0.84 0.04 -0.00343367 -0.00144641 0.00372588 0.015511
0.86 0.04 -0.00222823 -0.00118446 0.00252348 0.0152234
0.88 0.04 -0.00126299 -0.000901324 0.00155162 0.0149186
0.9 0.04 -0.000554169 -0.000609595 0.000823839 0.014617
0.92 0.04 -0.000102681 -0.000325785 0.000341584 0.0143413
0.94 0.04 0.000109704 -7.34997e-05 0.00013205 0.0141151
0.96 0.04 0.000131156 0.000108842 0.000170437 0.0139666
0.98 0.04 6.29271e-05 0.000159791 0.000171735 0.0139286
1 0.04 0 0 0 0.0139416
0 0.06 0 0 0 0.00909332
0.02 0.06 -7.23751e-05 2.67731e-05 7.71683e-05 0.00904192
0.04 0.06 -0.000313287 0.000359278 0.000476686 0.00890829
0.06 0.06 -0.000820129 0.000831911 0.0011682 0.00873145
0.08 0.06 -0.00162068 0.00134209 0.00210424 0.00853561
0.1 0.06 -0.00271079 0.00183643 0.00327427 0.00833314
0.12 0.06 -0.00407102 0.00228633 0.0046691 0.0081373
0.14 0.06 -0.00567087 0.00267709 0.00627101 0.0079585
0.16 0.06 -0.00747531 0.00300257 0.00805579 0.00780388
0.18 0.06 -0.00944791 0.00326204 0.0099952 0.00767984
0.2 0.06 -0.0115503 0.00345768 0.0120568 0.00759235
0.22 0.06 -0.0137425 0.00359277 0.0142043 0.00754569
0.24 0.06 -0.0159886 0.00366976 0.0164043 0.0075378
0.26 0.06 -0.0182621 0.00369078 0.0186313 0.0075674
0.28 0.06 -0.0205359 0.00365943 0.0208594 0.00764069
0.3 0.06 -0.0227763 0.00357916 0.0230558 0.00776102
0.32 0.06 -0.0249502 0.00345156 0.0251878 0.00792694
0.34 0.06 -0.0270275 0.00327706 0.0272254 0.00813791
0.36 0.06 -0.0289794 0.00305562 0.02914 0.00839374
0.38 0.06 -0.0307771 0.00278735 0.0309031 0.00869365
0.4 0.06 -0.0323923 0.00247266 0.0324866 0.00903604
0.42 0.06 -0.0337974 0.0021124 0.0338634 0.00941868
0.44 0.06 -0.0349662 0.00170806 0.0350079 0.00983801
0.46 0.06 -0.0358743 0.00126237 0.0358965 0.0102898
0.48 0.06 -0.0365001 0.000779467 0.0365085 0.0107697
0.5 0.06 -0.0368235 0.000266133 0.0368244 0.0112739
0.52 0.06 -0.0368275 -0.000268415 0.0368284 0.0117944
0.54 0.06 -0.0365012 -0.000815676 0.0365103 0.0123212
0.56 0.06 -0.0358406 -0.00136712 0.0358667 0.0128451
0.58 0.06 -0.0348484 -0.00191168 0.0349008 0.0133558
0.6 0.06 -0.0335348 -0.00243663 0.0336232 0.0138426
0.62 0.06 -0.0319171 -0.00292847 0.0320512 0.0142953
0.64 0.06 -0.0300203 -0.00337327 0.0302093 0.0147038
0.66 0.06 -0.0278769 -0.00375759 0.028129 0.015059
0.68 0.06 -0.0255262 -0.00406892 0.0258485 0.0153532
0.7 0.06 -0.0230151 -0.00429609 0.0234126 0.0155791
0.72 0.06 -0.0203996 -0.00442915 0.0208749 0.0157293
0.74 0.06 -0.0177423 -0.00445935 0.0182941 0.0158027
0.76 0.06 -0.0150993 -0.0043816 0.0157222 0.0158083
0.78 0.06 -0.0125194 -0.00419689 0.0132041 0.0157506
0.8 0.06 -0.0100581 -0.0039106 0.0107916 0.0156273
0.82 0.06 -0.00777844 -0.00353106 0.0085424 0.0154449
0.84 0.06 -0.00573569 -0.00307026 0.00650574 0.0152184
0.86 0.06 -0.00397356 -0.0025445 0.00471844 0.0149615
0.88 0.06 -0.00252631 -0.00197491 0.00320663 0.0146886
0.9 0.06 -0.00141443 -0.00138848 0.00198204 0.0144185
0.92 0.06 -0.000638711 -0.000819827 0.00103926 0.0141702
0.94 0.06 -0.000179029 -0.000314338 0.000361746 0.0139602
0.96 0.06 1.29693e-05 6.42058e-05 6.55025e-05 0.0138112
0.98 0.06 3.52601e-05 0.000218571 0.000221396 0.0137532
1 0.06 0 0 0 0.013751
0 0.08 0 0 0 0.00936745
0.02 0.08 -0.000170184 0.000243383 0.000296981 0.00928868
0.04 0.08 -0.000593973 0.000860603 0.00104568 0.00910887
0.06 0.08 -0.00138083 0.00164995 0.00215152 0.00890847
0.08 0.08 -0.00253327 0.0024823 0.00354673 0.0087092
0.1 0.08 -0.00403139 0.00328498 0.00520031 0.00851281
0.12 0.08 -0.00584893 0.00401555 0.00709469 0.00832814
0.14 0.08 -0.00794956 0.00465141 0.00921038 0.00816284
0.16 0.08 -0.0102919 0.00518242 0.0115231 0.00802218
0.18 0.08 -0.0128327 0.00560648 0.014004 0.00791072
0.2 0.08 -0.0155265 0.00592585 0.0166189 0.00783315
0.22 0.08 -0.0183262 0.00614461 0.0193289 0.00779268
0.24 0.08 -0.021189 0.00626685 0.0220963 0.00778724
0.26 0.08 -0.02408 0.00629682 0.0248897 0.00781606
0.28 0.08 -0.0269636 0.00623921 0.027676 0.00788463
0.3 0.08 -0.0297987 0.00609784 0.0304162 0.00799567
0.32 0.08 -0.032545 0.00587487 0.033071 0.00814796
0.34 0.08 -0.0351651 0.00557131 0.0356037 0.00834123
0.36 0.08 -0.0376229 0.00518759 0.0379788 0.00857566
0.38 0.08 -0.0398821 0.00472415 0.040161 0.00885058
0.4 0.08 -0.0419079 0.00418197 0.042116 0.00916448
0.42 0.08 -0.0436664 0.00356315 0.0438115 0.00951575
0.44 0.08 -0.0451254 0.00287106 0.0452167 0.00990239
0.46 0.08 -0.046255 0.00211133 0.0463031 0.0103212
0.48 0.08 -0.0470276 0.00129272 0.0470454 0.0107691
0.5 0.08 -0.0474192 0.000426826 0.0474211 0.0112403
0.52 0.08 -0.0474118 -0.000473725 0.0474142 0.0117258
0.54 0.08 -0.0469943 -0.0013954 0.047015 0.0122182
0.56 0.08 -0.0461619 -0.00232196 0.0462202 0.0127097
0.58 0.08 -0.0449177 -0.00323458 0.045034 0.0131901
0.6 0.08 -0.0432745 -0.0041127 0.0434695 0.0136494
0.62 0.08 -0.0412534 -0.00493453 0.0415475 0.0140777
0.64 0.08 -0.0388851 -0.00567757 0.0392974 0.0144651
0.66 0.08 -0.0362092 -0.00631981 0.0367566 0.0148026
0.68 0.08 -0.0332737 -0.00684067 0.0339696 0.0150829
0.7 0.08 -0.0301351 -0.00722179 0.0309884 0.0152992
0.72 0.08 -0.0268598 -0.00744756 0.0278732 0.0154443
0.74 0.08 -0.0235217 -0.00750573 0.0246902 0.0155164
0.76 0.08 -0.0201901 -0.00738958 0.0214999 0.0155237
0.78 0.08 -0.0169268 -0.00709976 0.0183554 0.0154711
0.8 0.08 -0.0137996 -0.00664339 0.0153155 0.0153564
0.82 0.08 -0.0108828 -0.00603336 0.0124434 0.0151852
0.84 0.08 -0.00824289 -0.00528907 0.00979385 0.0149714
0.86 0.08 -0.00593299 -0.00443725 0.00740875 0.0147277
0.88 0.08 -0.00399485 -0.00351237 0.00531936 0.0144669
0.9 0.08 -0.00245426 -0.0025576 0.00354467 0.014206
0.92 0.08 -0.00131482 -0.00162826 0.00209284 0.0139621
0.94 0.08 -0.000557681 -0.000794186 0.000970433 0.0137483
0.96 0.08 -0.0001419 -0.000144427 0.000202472 0.013578
0.98 0.08 5.06655e-06 0.000190114 0.000190182 0.0134685
1 0.08 0 0 0 0.0134314
0 0.1 0 0 0 0.00967158
0.02 0.1 -0.000269867 0.000611105 0.00066804 0.00956014
0.04 0.1 -0.000886232 0.00161662 0.0018436 0.00932344
0.06 0.1 -0.00196815 0.00279843 0.00342123 0.0090894
0.08 0.1 -0.00348647 0.00401206 0.00531527 0.00887668
0.1 0.1 -0.00540173 0.00517149 0.00747817 0.00867684
0.12 0.1 -0.00767802 0.00622339 0.00988345 0.00849547
0.14 0.1 -0.0102716 0.0071385 0.0125085 0.00833683
0.16 0.1 -0.0131346 0.00790309 0.015329 0.00820411
0.18 0.1 -0.0162179 0.00851361 0.0183167 0.00810006
0.2 0.1 -0.01947 0.00897228 0.0214379 0.00802799
0.22 0.1 -0.0228384 0.00928373 0.0246532 0.00799033
0.24 0.1 -0.0262739 0.00945339 0.0279228 0.00798487
0.26 0.1 -0.0297347 0.00948739 0.0312115 0.00801052
0.28 0.1 -0.0331783 0.00939156 0.0344819 0.00807212
0.3 0.1 -0.0365576 0.00917001 0.0376901 0.00817216
0.32 0.1 -0.0398261 0.00882526 0.0407922 0.00830934
0.34 0.1 -0.0429403 0.00835893 0.0437464 0.0084837
0.36 0.1 -0.045858 0.00777233 0.046512 0.00869602
0.38 0.1 -0.0485369 0.00706671 0.0490487 0.00894643
0.4 0.1 -0.0509361 0.00624415 0.0513174 0.00923447
0.42 0.1 -0.0530161 0.00530884 0.0532812 0.00955889
0.44 0.1 -0.0547394 0.0042675 0.0549055 0.00991868
0.46 0.1 -0.0560708 0.00312949 0.0561581 0.0103114
0.48 0.1 -0.0569789 0.00190756 0.0570109 0.010732
0.5 0.1 -0.057438 0.000617032 0.0574413 0.0111739
0.52 0.1 -0.0574289 -0.000724675 0.0574335 0.0116305
0.54 0.1 -0.056939 -0.00209649 0.0569775 0.0120961
0.56 0.1 -0.0559621 -0.00347355 0.0560698 0.0125627
0.58 0.1 -0.0545025 -0.00482802 0.0547159 0.0130202
0.6 0.1 -0.0525744 -0.00612984 0.0529306 0.0134597
0.62 0.1 -0.0502019 -0.00734758 0.0507368 0.0138715
0.64 0.1 -0.0474195 -0.00844922 0.0481663 0.0142455
0.66 0.1 -0.0442722 -0.00940315 0.0452598 0.0145727
0.68 0.1 -0.0408148 -0.0101796 0.0420651 0.0148453
0.7 0.1 -0.0371113 -0.010752 0.0386375 0.0150566
0.72 0.1 -0.0332367 -0.011098 0.0350406 0.0151994
0.74 0.1 -0.0292744 -0.0112009 0.0313441 0.0152711
0.76 0.1 -0.0253048 -0.0110515 0.0276129 0.0152794
0.78 0.1 -0.0214009 -0.0106503 0.0239045 0.0152294
0.8 0.1 -0.017641 -0.0100065 0.0202814 0.0151185
0.82 0.1 -0.01411 -0.00913816 0.0168106 0.0149519
0.84 0.1 -0.0108843 -0.00807301 0.0135514 0.0147423
0.86 0.1 -0.00802646 -0.00684946 0.0105517 0.014502
0.88 0.1 -0.00558569 -0.00551676 0.00785077 0.0142427
0.9 0.1 -0.00359484 -0.00413583 0.00547977 0.0139783
0.92 0.1 -0.00206372 -0.00278311 0.00346477 0.0137249
0.94 0.1 -0.000977325 -0.00155287 0.00183482 0.0134948
0.96 0.1 -0.000307103 -0.000559228 0.000638003 0.0132885
0.98 0.1 -1.97151e-05 3.97101e-05 4.43348e-05 0.013106
1 0.1 0 0 0 0.0130216
0 0.12 0 0 0 0.00997236
0.02 0.12 -0.000367957 0.0011305 0.00118887 0.00982698
0.04 0.12 -0.0011775 0.00263177 0.00288318 0.00953004
0.06 0.12 -0.00255672 0.00428436 0.00498924 0.00925787
0.08 0.12 -0.00444279 0.00593773 0.00741586 0.00902563
0.1 0.12 -0.00677508 0.0074985 0.0101059 0.00881482
0.12 0.12 -0.00950627 0.00890666 0.0130268 0.00862956
0.14 0.12 -0.0125834 0.0101283 0.0161532 0.00847111
0.16 0.12 -0.0159516 0.0111473 0.0194606 0.00834051
0.18 0.12 -0.0195556 0.0119591 0.0229225 0.00823864
0.2 0.12 -0.0233391 0.0125662 0.026507 0.0081673
0.22 0.12 -0.0272446 0.012974 0.030176 0.00812844
0.24 0.12 -0.0312174 0.013189 0.0338892 0.00811985
0.26 0.12 -0.0352096 0.0132187 0.0376092 0.00813931
0.28 0.12 -0.0391737 0.0130703 0.0412967 0.00819105
0.3 0.12 -0.0430579 0.0127484 0.0449055 0.00827798
0.32 0.12 -0.0468104 0.0122559 0.0483882 0.00839957
0.34 0.12 -0.0503821 0.0115952 0.0516992 0.00855617
0.36 0.12 -0.0537254 0.0107688 0.054794 0.0087485
0.38 0.12 -0.0567933 0.00977965 0.0576291 0.00897748
0.4 0.12 -0.0595396 0.00863177 0.060162 0.00924383
0.42 0.12 -0.0619196 0.00733148 0.0623521 0.00954646
0.44 0.12 -0.0638916 0.00588835 0.0641623 0.00988312
0.46 0.12 -0.065417 0.00431513 0.0655592 0.0102512
0.48 0.12 -0.0664619 0.00262789 0.0665138 0.0106465
0.5 0.12 -0.0669984 0.000846689 0.0670037 0.0110639
0.52 0.12 -0.0670049 -0.00100378 0.0670124 0.0114985
0.54 0.12 -0.0664664 -0.00289383 0.0665294 0.0119446
0.56 0.12 -0.065376 -0.00478968 0.0655513 0.0123942
0.58 0.12 -0.0637376 -0.00665366 0.064084 0.0128375
0.6 0.12 -0.0615666 -0.00844488 0.062143 0.0132651
0.62 0.12 -0.0588887 -0.0101209 0.0597521 0.0136678
0.64 0.12 -0.0557413 -0.011639 0.0569435 0.0140358
0.66 0.12 -0.0521729 -0.012957 0.0537578 0.0143597
0.68 0.12 -0.0482431 -0.0140354 0.0502433 0.0146312
0.7 0.12 -0.0440218 -0.0148383 0.0464553 0.014843
0.72 0.12 -0.0395911 -0.0153359 0.0424576 0.0149873
0.74 0.12 -0.0350429 -0.0155055 0.03832 0.0150607
0.76 0.12 -0.0304673 -0.0153348 0.0341088 0.0150704
0.78 0.12 -0.0259473 -0.014824 0.0298833 0.0150216
0.8 0.12 -0.021571 -0.0139841 0.0257073 0.0149112
0.82 0.12 -0.0174335 -0.0128386 0.0216508 0.0147436
0.84 0.12 -0.0136219 -0.0114239 0.0177781 0.014531
0.86 0.12 -0.0102084 -0.00979069 0.0141445 0.014285
0.88 0.12 -0.00725109 -0.00800397 0.0108001 0.0140167
0.9 0.12 -0.00479172 -0.00614348 0.00779121 0.0137381
0.92 0.12 -0.0028491 -0.00430656 0.0051637 0.0134644
0.94 0.12 -0.00141564 -0.00261124 0.00297029 0.0132077
0.96 0.12 -0.000477768 -0.00119658 0.00128843 0.0129581
0.98 0.12 -4.3738e-05 -0.000240927 0.000244865 0.0126981
1 0.12 0 0 0 0.0125647
0 0.14 0 0 0 0.0102456
0.02 0.14 -0.000463364 0.00179546 0.00185429 0.0100675
0.04 0.14 -0.00146123 0.00390046 0.00416519 0.00971094
0.06 0.14 -0.00313175 0.00610335 0.00685994 0.00939794
0.08 0.14 -0.00537945 0.00825416 0.0098524 0.00914132
0.1 0.14 -0.00812184 0.0102577 0.0130838 0.00891391
0.12 0.14 -0.0112989 0.0120522 0.0165204 0.00871899
0.14 0.14 -0.0148475 0.0136023 0.0201363 0.00855531
0.16 0.14 -0.018705 0.014891 0.0239085 0.00842209
0.18 0.14 -0.0228098 0.0159137 0.0278124 0.0083185
0.2 0.14 -0.0271009 0.0166738 0.0318194 0.00824459
0.22 0.14 -0.0315166 0.017178 0.035894 0.00820162
0.24 0.14 -0.0359974 0.0174338 0.0399969 0.00818757
0.26 0.14 -0.04049 0.0174496 0.04409 0.00819944
0.28 0.14 -0.0449428 0.017234 0.0481338 0.00824038
0.3 0.14 -0.0493004 0.0167931 0.052082 0.00831385
0.32 0.14 -0.0535068 0.0161306 0.0558853 0.00842052
0.34 0.14 -0.0575079 0.0152497 0.0594955 0.00856098
0.36 0.14 -0.0612515 0.0141538 0.0628655 0.00873559
0.38 0.14 -0.0646865 0.012847 0.0659499 0.00894504
0.4 0.14 -0.067763 0.0113355 0.0687046 0.00918981
0.42 0.14 -0.0704326 0.00962734 0.0710875 0.00946969
0.44 0.14 -0.0726499 0.00773426 0.0730604 0.00978307
0.46 0.14 -0.0743736 0.00567239 0.0745896 0.0101278
0.48 0.14 -0.0755667 0.00346266 0.075646 0.0105015
0.5 0.14 -0.0761981 0.00113158 0.0762065 0.0109004
0.52 0.14 -0.0762433 -0.00128814 0.0762542 0.0113193
0.54 0.14 -0.0756853 -0.00375808 0.0757785 0.0117523
0.56 0.14 -0.0745157 -0.00623501 0.0747761 0.0121921
0.58 0.14 -0.0727369 -0.00867103 0.073252 0.0126288
0.6 0.14 -0.0703641 -0.0110139 0.0712208 0.0130526
0.62 0.14 -0.0674238 -0.013209 0.0687055 0.0134539
0.64 0.14 -0.0639547 -0.0152015 0.0657365 0.013823
0.66 0.14 -0.0600078 -0.0169376 0.0623524 0.0141501
0.68 0.14 -0.0556458 -0.0183666 0.0585986 0.0144267
0.7 0.14 -0.0509431 -0.0194429 0.0545273 0.0146447
0.72 0.14 -0.0459872 -0.020128 0.0501992 0.0147955
0.74 0.14 -0.0408776 -0.0203923 0.0456817 0.014874
0.76 0.14 -0.035714 -0.0202191 0.0410402 0.0148866
0.78 0.14 -0.0305887 -0.0196075 0.0363335 0.014839
0.8 0.14 -0.0255995 -0.0185704 0.0316258 0.0147276
0.82 0.14 -0.020852 -0.017136 0.0269897 0.0145555
0.84 0.14 -0.0164448 -0.0153495 0.0224953 0.0143346
0.86 0.14 -0.0124615 -0.0132742 0.0182069 0.0140761
0.88 0.14 -0.00897086 -0.0109909 0.0141872 0.0137909
0.9 0.14 -0.00602511 -0.00859859 0.0104994 0.0134899
0.92 0.14 -0.00365488 -0.00621543 0.00721038 0.0131865
0.94 0.14 -0.00186375 -0.00398205 0.00439663 0.0128943
0.96 0.14 -0.000653781 -0.0020607 0.00216192 0.0125979
0.98 0.14 -7.09253e-05 -0.000646677 0.000650554 0.0122636
1 0.14 0 0 0 0.0120837
0 0.16 0 0 0 0.010473
0.02 0.16 -0.00055531 0.00259804 0.00265673 0.0102638
0.04 0.16 -0.00173399 0.00541125 0.00568228 0.00984883
0.06 0.16 -0.00368559 0.00824165 0.0090282 0.00949288
0.08 0.16 -0.00628409 0.0109461 0.0126217 0.00920974
0.1 0.16 -0.00942446 0.0134326 0.016409 0.00896425
0.12 0.16 -0.0130335 0.0156418 0.0203602 0.00875739
0.14 0.16 -0.0170376 0.0175398 0.0244525 0.00858578
0.16 0.16 -0.0213664 0.019111 0.0286662 0.00844712
0.18 0.16 -0.0259516 0.0203524 0.0329804 0.00833918
0.2 0.16 -0.0307276 0.0212689 0.0373705 0.00826045
0.22 0.16 -0.035629 0.021869 0.0418052 0.00821109
0.24 0.16 -0.0405924 0.0221613 0.0462478 0.00818965
0.26 0.16 -0.0455592 0.0221552 0.0506605 0.00819313
0.28 0.16 -0.0504739 0.0218608 0.0550046 0.00822287
0.3 0.16 -0.0552788 0.0212857 0.0592353 0.00828222
0.32 0.16 -0.0599146 0.0204346 0.0633035 0.00837227
0.34 0.16 -0.0643241 0.0193113 0.0671604 0.00849363
0.36 0.16 -0.0684513 0.0179197 0.070758 0.00864755
0.38 0.16 -0.0722416 0.0162646 0.0740499 0.00883511
0.4 0.16 -0.0756419 0.0143533 0.0769916 0.00905689
0.42 0.16 -0.0786009 0.0121965 0.0795416 0.00931354
0.44 0.16 -0.0810701 0.00980876 0.0816614 0.00960511
0.46 0.16 -0.0830046 0.00721033 0.0833172 0.00993046
0.48 0.16 -0.084364 0.00442785 0.0844801 0.0102874
0.5 0.16 -0.0851139 0.00149466 0.085127 0.0106726
0.52 0.16 -0.0852268 -0.00154883 0.0852409 0.011081
0.54 0.16 -0.0846832 -0.00465537 0.084811 0.0115066
0.56 0.16 -0.0834724 -0.00777173 0.0838334 0.0119426
0.58 0.16 -0.0815945 -0.0108393 0.0823113 0.0123799
0.6 0.16 -0.0790622 -0.013794 0.0802565 0.0128077
0.62 0.16 -0.0759017 -0.0165687 0.0776891 0.0132157
0.64 0.16 -0.0721518 -0.0190952 0.0746358 0.0135938
0.66 0.16 -0.0678642 -0.0213067 0.0711304 0.0139315
0.68 0.16 -0.063104 -0.0231401 0.0672129 0.0142197
0.7 0.16 -0.0579486 -0.0245384 0.0629299 0.0144498
0.72 0.16 -0.0524899 -0.0254532 0.0583357 0.0146125
0.74 0.16 -0.0468342 -0.0258466 0.0534929 0.0147004
0.76 0.16 -0.0410906 -0.0256966 0.048464 0.0147187
0.78 0.16 -0.0353611 -0.025 0.0433059 0.0146742
0.8 0.16 -0.0297524 -0.0237708 0.0380822 0.014562
0.82 0.16 -0.0243823 -0.0220413 0.0328681 0.0143836
0.84 0.16 -0.0193623 -0.0198652 0.0277403 0.0141509
0.86 0.16 -0.0147891 -0.0173178 0.0227733 0.0138751
0.88 0.16 -0.0107442 -0.0144961 0.0180437 0.0135669
0.9 0.16 -0.00729257 -0.0115182 0.0136327 0.0132368
0.92 0.16 -0.00447863 -0.00852325 0.00962829 0.0128973
0.94 0.16 -0.00231945 -0.00567345 0.00612927 0.0125631
0.96 0.16 -0.000833406 -0.00315227 0.00326058 0.0122157
0.98 0.16 -0.0001005 -0.00117197 0.00117627 0.0118074
1 0.16 0 0 0 0.0115828
0 0.18 0 0 0 0.0106363
0.02 0.18 -0.00064422 0.0035272 0.00358555 0.0103974
0.04 0.18 -0.00199576 0.00714779 0.00742118 0.00992803
0.06 0.18 -0.0042151 0.0106814 0.011483 0.00953269
0.08 0.18 -0.00714839 0.0139969 0.0157166 0.00922477
0.1 0.18 -0.0106696 0.0170088 0.0200784 0.00896206
0.12 0.18 -0.0146924 0.0196628 0.0245457 0.00874295
0.14 0.18 -0.0191327 0.0219291 0.0291023 0.00856216
0.16 0.18 -0.023912 0.0237957 0.0337345 0.00841576
0.18 0.18 -0.028956 0.025263 0.0384274 0.0083003
0.2 0.18 -0.0341939 0.0263384 0.0431617 0.00821326
0.22 0.18 -0.0395574 0.027033 0.0479121 0.00815362
0.24 0.18 -0.0449797 0.0273577 0.0526462 0.0081207
0.26 0.18 -0.0503977 0.0273228 0.0573277 0.00811223
0.28 0.18 -0.055752 0.0269391 0.0619193 0.00812728
0.3 0.18 -0.0609834 0.0262156 0.0663795 0.00816863
0.32 0.18 -0.0660309 0.0251581 0.0706613 0.00823847
0.34 0.18 -0.0708346 0.0237706 0.0747167 0.00833781
0.36 0.18 -0.0753359 0.0220577 0.0784986 0.00846861
0.38 0.18 -0.0794773 0.0200253 0.0819613 0.00863287
0.4 0.18 -0.0832026 0.0176823 0.0850608 0.0088322
0.42 0.18 -0.0864579 0.0150415 0.0877565 0.00906778
0.44 0.18 -0.0891912 0.0121211 0.0900111 0.00934018
0.46 0.18 -0.0913546 0.00894566 0.0917916 0.00964893
0.48 0.18 -0.0929043 0.00554719 0.0930697 0.00999235
0.5 0.18 -0.0938023 0.00196548 0.0938229 0.0103674
0.52 0.18 -0.0940176 -0.00175143 0.0940339 0.0107697
0.54 0.18 -0.0935273 -0.00554739 0.0936916 0.0111932
0.56 0.18 -0.0923175 -0.00935882 0.0927906 0.0116314
0.58 0.18 -0.0903845 -0.0131158 0.0913312 0.0120756
0.6 0.18 -0.0877377 -0.0167423 0.0893208 0.0125146
0.62 0.18 -0.0844006 -0.0201578 0.0867744 0.0129373
0.64 0.18 -0.0804106 -0.0232802 0.0837128 0.0133327
0.66 0.18 -0.075819 -0.0260286 0.0801624 0.0136894
0.68 0.18 -0.0706917 -0.0283258 0.0761555 0.0139972
0.7 0.18 -0.0651082 -0.0301017 0.07173 0.0142466
0.72 0.18 -0.0591638 -0.0312964 0.0669315 0.0144275
0.74 0.18 -0.052971 -0.031862 0.0618152 0.0145299
0.76 0.18 -0.0466487 -0.0317687 0.0564389 0.0145578
0.78 0.18 -0.0403086 -0.0310094 0.0508564 0.0145194
0.8 0.18 -0.0340672 -0.029599 0.0451296 0.0144084
0.82 0.18 -0.0280547 -0.0275732 0.0393364 0.0142239
0.84 0.18 -0.0223978 -0.0249927 0.0335604 0.0139777
0.86 0.18 -0.0172084 -0.0219446 0.0278872 0.0136812
0.88 0.18 -0.0125835 -0.0185417 0.0224084 0.0133454
0.9 0.18 -0.00860281 -0.0149212 0.0172235 0.0129812
0.92 0.18 -0.00532606 -0.0112437 0.0124414 0.0126006
0.94 0.18 -0.00278529 -0.00769301 0.0081817 0.0122193
0.96 0.18 -0.0010161 -0.00447347 0.00458742 0.0118161
0.98 0.18 -0.000130805 -0.00181567 0.00182037 0.0113315
1 0.18 0 0 0 0.0110616
0 0.2 0 0 0 0.0107238
0.02 0.2 -0.000729897 0.00457163 0.00462953 0.0104589
0.04 0.2 -0.00224422 0.00909656 0.00936931 0.00994269
0.06 0.2 -0.00471409 0.0134109 0.0142153 0.00951312
0.08 0.2 -0.00796178 0.0173961 0.0191315 0.00918044
0.1 0.2 -0.0118432 0.0209763 0.0240887 0.00889767
0.12 0.2 -0.0162589 0.024105 0.0290758 0.00866316
0.14 0.2 -0.0211142 0.0267592 0.0340861 0.00846991
0.16 0.2 -0.0263221 0.0289332 0.039115 0.0083124
0.18 0.2 -0.0318021 0.030632 0.0441553 0.00818602
0.2 0.2 -0.0374791 0.0318673 0.0491955 0.00808727
0.22 0.2 -0.0432813 0.0326536 0.0542174 0.0080139
0.24 0.2 -0.0491399 0.0330051 0.0591951 0.00796522
0.26 0.2 -0.0549883 0.0329335 0.0640963 0.00794053
0.28 0.2 -0.0607635 0.0324499 0.0688854 0.00793807
0.3 0.2 -0.0664045 0.0315643 0.0735246 0.00795857
0.32 0.2 -0.0718503 0.0302839 0.0779716 0.00800564
0.34 0.2 -0.0770387 0.0286135 0.0821809 0.008082
0.36 0.2 -0.0819089 0.0265582 0.086107 0.00818956
0.38 0.2 -0.0864011 0.0241252 0.0897061 0.00833072
0.4 0.2 -0.0904569 0.0213249 0.0929366 0.00850789
0.42 0.2 -0.0940194 0.0181724 0.0957595 0.00872298
0.44 0.2 -0.0970341 0.0146887 0.0981396 0.0089772
0.46 0.2 -0.0994497 0.0109025 0.100046 0.00927075
0.48 0.2 -0.101219 0.00685064 0.10145 0.00960266
0.5 0.2 -0.1023 0.00257917 0.102332 0.00997054
0.52 0.2 -0.102657 -0.00185645 0.102674 0.0103704
0.54 0.2 -0.102264 -0.00639123 0.102463 0.0107966
0.56 0.2 -0.101101 -0.0109512 0.101693 0.0112424
0.58 0.2 -0.0991615 -0.0154548 0.100359 0.0116994
0.6 0.2 -0.0964483 -0.0198136 0.0984625 0.0121568
0.62 0.2 -0.092981 -0.0239334 0.0960118 0.012602
0.64 0.2 -0.0887938 -0.0277173 0.0930193 0.0130229
0.66 0.2 -0.0839362 -0.0310688 0.0895017 0.0134074
0.68 0.2 -0.0784732 -0.0338954 0.0854807 0.0137437
0.7 0.2 -0.0724855 -0.0361122 0.0809829 0.0140212
0.72 0.2 -0.0660706 -0.0376454 0.0760428 0.0142284
0.74 0.2 -0.0593467 -0.0384354 0.0707058 0.0143528
0.76 0.2 -0.0524422 -0.0384416 0.0650226 0.014396
0.78 0.2 -0.0454803 -0.0376503 0.0590424 0.0143672
0.8 0.2 -0.038588 -0.0360759 0.0528253 0.0142603
0.82 0.2 -0.0319083 -0.0337571 0.0464508 0.014072
0.84 0.2 -0.0255845 -0.0307603 0.0400095 0.0138125
0.86 0.2 -0.0197469 -0.0271834 0.0335988 0.0134937
0.88 0.2 -0.0145102 -0.0231547 0.0273256 0.0131271
0.9 0.2 -0.00997175 -0.018831 0.0213083 0.0127247
0.92 0.2 -0.0062081 -0.0143946 0.0156763 0.0122986
0.94 0.2 -0.00326759 -0.0100521 0.0105699 0.0118658
0.96 0.2 -0.00120388 -0.0060302 0.0061492 0.0114023
0.98 0.2 -0.000161471 -0.00257993 0.00258498 0.0108375
1 0.2 0 0 0 0.0105208
0 0.22 0 0 0 0.0107353
0.02 0.22 -0.000807759 0.00572799 0.00578466 0.0104472
0.04 0.22 -0.00247128 0.0112518 0.01152 0.00988571
0.06 0.22 -0.0051738 0.0164212 0.017217 0.00941947
0.08 0.22 -0.00871601 0.0211305 0.0228576 0.00905969
0.1 0.22 -0.012936 0.0253173 0.0284307 0.00875468
0.12 0.22 -0.0177219 0.0289469 0.033941 0.00850239
0.14 0.22 -0.0229685 0.0320063 0.0393949 0.00829405
0.16 0.22 -0.0285813 0.0344976 0.0447993 0.00812285
0.18 0.22 -0.0344736 0.0364327 0.0501574 0.00798309
0.2 0.22 -0.0405657 0.0378286 0.0554669 0.00787025
0.22 0.22 -0.0467831 0.038704 0.0607179 0.00778113
0.24 0.22 -0.0530552 0.0390767 0.0658927 0.00771419
0.26 0.22 -0.0593136 0.0389616 0.0709656 0.00766954
0.28 0.22 -0.0654925 0.0383702 0.0759048 0.00764714
0.3 0.22 -0.0715286 0.0373123 0.0806756 0.00764632
0.32 0.22 -0.0773603 0.0357967 0.085241 0.00766915
0.34 0.22 -0.0829256 0.0338299 0.0895607 0.00772011
0.36 0.22 -0.0881619 0.0314177 0.0935926 0.00780266
0.38 0.22 -0.0930074 0.0285676 0.0972958 0.00791941
0.4 0.22 -0.0974018 0.0252913 0.100632 0.00807334
0.42 0.22 -0.101286 0.0216057 0.103565 0.00826717
0.44 0.22 -0.104603 0.0175345 0.106062 0.00850296
0.46 0.22 -0.107298 0.0131098 0.108096 0.00878175
0.48 0.22 -0.10932 0.00837282 0.10964 0.00910336
0.5 0.22 -0.110623 0.00337543 0.110674 0.0094661
0.52 0.22 -0.111166 -0.00181985 0.111181 0.00986656
0.54 0.22 -0.110918 -0.00713953 0.111147 0.0102995
0.56 0.22 -0.109853 -0.0124996 0.110562 0.0107578
0.58 0.22 -0.107958 -0.0178065 0.109417 0.0112334
0.6 0.22 -0.105231 -0.0229592 0.107707 0.0117158
0.62 0.22 -0.101684 -0.0278495 0.105429 0.0121915
0.64 0.22 -0.0973466 -0.0323646 0.102586 0.0126467
0.66 0.22 -0.0922643 -0.0363914 0.0991818 0.0130683