Variables = x, y, u, v, umag, p
ZONE I= 51 J= 51 F=point
0 0 -9.42886e-06 6.32541e-06 1.1354e-05 0.00576085
0.02 0 0 -8.47033e-22 8.47033e-22 0.00763937
0.04 0 0 0 0 0.00750918
0.06 0 0 -1.69407e-21 1.69407e-21 0.00730116
0.08 0 0 -3.38813e-21 3.38813e-21 0.00704623
0.1 0 0 0 0 0.00677284
0.12 0 0 0 0 0.006504
0.14 0 0 6.77626e-21 6.77626e-21 0.00625704
0.16 0 0 -6.77626e-21 6.77626e-21 0.00604445
0.18 0 -5.42101e-20 -6.77626e-21 5.4632e-20 0.00587489
0.2 0 0 0 0 0.00575417
0.22 0 -1.0842e-19 0 1.0842e-19 0.00568607
0.24 0 -1.0842e-19 0 1.0842e-19 0.00567295
0.26 0 0 -1.35525e-20 1.35525e-20 0.00571622
0.28 0 -1.0842e-19 0 1.0842e-19 0.00581664
0.3 0 0 6.77626e-21 6.77626e-21 0.00597454
0.32 0 -2.1684e-19 0 2.1684e-19 0.00618982
0.34 0 -2.1684e-19 -6.77626e-21 2.16946e-19 0.00646202
0.36 0 2.1684e-19 -6.77626e-21 2.16946e-19 0.00679017
0.38 0 0 0 0 0.00717274
0.4 0 -2.1684e-19 6.77626e-21 2.16946e-19 0.00760744
0.42 0 0 0 0 0.00809112
0.44 0 0 -3.38813e-21 3.38813e-21 0.00861958
0.46 0 -2.1684e-19 0 2.1684e-19 0.00918746
0.48 0 -2.1684e-19 0 2.1684e-19 0.00978818
0.5 0 0 0 0 0.0104139
0.52 0 -2.1684e-19 0 2.1684e-19 0.0110554
0.54 0 0 0 0 0.0117026
0.56 0 2.1684e-19 0 2.1684e-19 0.0123441
0.58 0 0 0 0 0.0129681
0.6 0 0 -6.77626e-21 6.77626e-21 0.013562
0.62 0 0 0 0 0.0141136
0.64 0 0 0 0 0.0146108
0.66 0 2.1684e-19 1.35525e-20 2.17264e-19 0.0150426
0.68 0 0 1.35525e-20 1.35525e-20 0.0153993
0.7 0 0 0 0 0.015673
0.72 0 0 -1.35525e-20 1.35525e-20 0.0158583
0.74 0 -1.0842e-19 0 1.0842e-19 0.0159524
0.76 0 -1.0842e-19 1.35525e-20 1.09264e-19 0.0159556
0.78 0 0 0 0 0.0158715
0.8 0 5.42101e-20 1.35525e-20 5.58785e-20 0.0157069
0.82 0 0 0 0 0.0154725
0.84 0 -1.35525e-20 0 1.35525e-20 0.0151818
0.86 0 1.35525e-20 0 1.35525e-20 0.0148521
0.88 0 0 3.38813e-21 3.38813e-21 0.0145035
0.9 0 0 1.69407e-21 1.69407e-21 0.0141592
0.92 0 0 -4.23516e-22 4.23516e-22 0.0138448
0.94 0 6.77626e-21 0 6.77626e-21 0.0135878
0.96 0 0 1.69407e-21 1.69407e-21 0.013415
0.98 0 -1.69407e-21 0 1.69407e-21 0.0133619
1 0 -4.33283e-06 -8.78591e-06 9.7962e-06 0.0100282
0 0.02 0 0 0 0.00771238
0.02 0.02 6.63122e-05 -3.40357e-05 7.45368e-05 0.00767103
0.04 0.02 7.48401e-05 2.1459e-05 7.78559e-05 0.00754701
0.06 0.02 -1.79443e-05 0.000117157 0.000118523 0.00735405
0.08 0.02 -0.00023257 0.000224291 0.000323102 0.00711941
0.1 0.02 -0.000570678 0.00032761 0.000658029 0.00686817
0.12 0.02 -0.00102351 0.000419786 0.00110625 0.00662096
0.14 0.02 -0.00157712 0.000497889 0.00165384 0.00639363
0.16 0.02 -0.00221545 0.000561323 0.00228546 0.0061979
0.18 0.02 -0.00292215 0.000610649 0.00298527 0.00604205
0.2 0.02 -0.00368141 0.000646922 0.00373782 0.0059318
0.22 0.02 -0.00447844 0.000671314 0.00452847 0.00587098
0.24 0.02 -0.00529949 0.000684912 0.00534357 0.00586205
0.26 0.02 -0.00613185 0.000688608 0.0061704 0.00590656
0.28 0.02 -0.00696359 0.000683067 0.00699701 0.00600541
0.3 0.02 -0.00778336 0.000668724 0.00781204 0.006159
0.32 0.02 -0.00858021 0.000645809 0.00860448 0.00636734
0.34 0.02 -0.00934337 0.000614403 0.00936355 0.00663001
0.36 0.02 -0.0100622 0.000574488 0.0100786 0.00694612
0.38 0.02 -0.010726 0.000526013 0.0107389 0.00731418
0.4 0.02 -0.0113242 0.000468964 0.0113339 0.00773199
0.42 0.02 -0.0118463 0.000403427 0.0118531 0.00819648
0.44 0.02 -0.0122821 0.000329649 0.0122866 0.00870361
0.46 0.02 -0.0126222 0.000248094 0.0126246 0.00924823
0.48 0.02 -0.0128575 0.00015949 0.0128585 0.00982399
0.5 0.02 -0.0129805 6.48583e-05 0.0129807 0.0104234
0.52 0.02 -0.012985 -3.44604e-05 0.012985 0.0110377
0.54 0.02 -0.0128666 -0.000136808 0.0128673 0.0116571
0.56 0.02 -0.0126232 -0.000240219 0.0126255 0.0122709
0.58 0.02 -0.0122554 -0.000342456 0.0122601 0.0128677
0.6 0.02 -0.0117662 -0.000441058 0.0117745 0.0134358
0.62 0.02 -0.0111621 -0.000533409 0.0111749 0.0139634
0.64 0.02 -0.0104524 -0.000616833 0.0104706 0.0144391
0.66 0.02 -0.00964963 -0.00068869 0.00967417 0.0148526
0.68 0.02 -0.00876932 -0.000746487 0.00880103 0.0151947
0.7 0.02 -0.00782978 -0.000787998 0.00786933 0.015458
0.72 0.02 -0.00685167 -0.000811373 0.00689954 0.0156375
0.74 0.02 -0.00585753 -0.000815244 0.00591399 0.0157307
0.76 0.02 -0.00487112 -0.000798813 0.00493618 0.0157381
0.78 0.02 -0.00391673 -0.000761925 0.00399015 0.0156632
0.8 0.02 -0.00301835 -0.00070512 0.00309962 0.0155127
0.82 0.02 -0.00219883 -0.000629679 0.00228721 0.0152967
0.84 0.02 -0.0014789 -0.000537672 0.00157361 0.0150283
0.86 0.02 -0.000876232 -0.000432054 0.000976961 0.0147236
0.88 0.02 -0.00040423 -0.000316862 0.000513618 0.0144016
0.9 0.02 -7.06743e-05 -0.000197621 0.000209879 0.0140838
0.92 0.02 0.000124177 -8.21532e-05 0.000148893 0.0137936
0.94 0.02 0.000190279 1.79763e-05 0.000191126 0.0135556
0.96 0.02 0.00015182 8.50591e-05 0.000174024 0.0133938
0.98 0.02 6.83646e-05 9.19018e-05 0.000114541 0.0133428
1 0.02 0 0 0 0.0133508
0 0.04 0 0 0 0.0078222
0.02 0.04 2.60492e-05 -1.99259e-05 3.27963e-05 0.00777577
0.04 0.04 -6.45763e-05 0.000147883 0.000161367 0.00765227
0.06 0.04 -0.000340469 0.000402249 0.000526995 0.00747792
0.08 0.04 -0.000827004 0.000682407 0.0010722 0.00727325
0.1 0.04 -0.00152544 0.000954001 0.00179919 0.00705718
0.12 0.04 -0.00242208 0.00119903 0.00270262 0.00684581
0.14 0.04 -0.00349477 0.00140924 0.00376821 0.006652
0.16 0.04 -0.00471718 0.00158202 0.0049754 0.00648565
0.18 0.04 -0.00606159 0.00171782 0.0063003 0.00635408
0.2 0.04 -0.00750049 0.00181855 0.0077178 0.00626253
0.22 0.04 -0.00900742 0.00188668 0.00920289 0.00621469
0.24 0.04 -0.0105573 0.00192464 0.0107313 0.00621309
0.26 0.04 -0.0121265 0.00193453 0.0122799 0.00625941
0.28 0.04 -0.0136925 0.00191798 0.0138262 0.00635471
0.3 0.04 -0.0152338 0.00187609 0.0153489 0.00649957
0.32 0.04 -0.0167294 0.00180953 0.016827 0.00669414
0.34 0.04 -0.0181589 0.00171861 0.0182401 0.00693816
0.36 0.04 -0.0195021 0.00160345 0.0195679 0.00723088
0.38 0.04 -0.020739 0.00146409 0.0207906 0.00757098
0.4 0.04 -0.0218499 0.00130073 0.0218886 0.00795646
0.42 0.04 -0.0228155 0.00111385 0.0228427 0.00838452
0.44 0.04 -0.0236174 0.000904358 0.0236347 0.00885144
0.46 0.04 -0.0242383 0.000673775 0.0242476 0.0093525
0.48 0.04 -0.0246626 0.000424303 0.0246662 0.00988188
0.5 0.04 -0.024877 0.000158934 0.0248775 0.0104327
0.52 0.04 -0.0248709 -0.000118516 0.0248712 0.010997
0.54 0.04 -0.0246374 -0.000403403 0.0246407 0.0115658
0.56 0.04 -0.0241735 -0.000690299 0.0241833 0.0121294
0.58 0.04 -0.0234807 -0.00097308 0.0235008 0.0126774
0.6 0.04 -0.0225657 -0.00124507 0.0226 0.0131992
0.62 0.04 -0.0214405 -0.00149922 0.0214929 0.013684
0.64 0.04 -0.0201226 -0.00172837 0.0201967 0.0141216
0.66 0.04 -0.0186349 -0.00192546 0.0187341 0.0145025
0.68 0.04 -0.0170057 -0.0020839 0.0171329 0.0148187
0.7 0.04 -0.0152678 -0.00219779 0.0154251 0.0150636
0.72 0.04 -0.0134583 -0.00226228 0.0136471 0.0152328
0.74 0.04 -0.0116174 -0.00227382 0.0118378 0.0153242
0.76 0.04 -0.00978751 -0.00223041 0.0100384 0.0153385
0.78 0.04 -0.00801165 -0.0021318 0.00829042 0.015279
0.8 0.04 -0.00633229 -0.00197963 0.00663451 0.0151522
0.82 0.04 -0.00478967 -0.00177761 0.0051089 0.0149673
0.84 0.04 -0.00342015 -0.00153165 0.00374745 0.014736
0.86 0.04 -0.00225437 -0.0012501 0.00257778 0.0144729
0.88 0.04 -0.00131524 -0.000944207 0.00161907 0.0141947
0.9 0.04 -0.000615604 -0.000628951 0.000880083 0.0139195
0.92 0.04 -0.000155458 -0.000324609 0.000359914 0.0136672
0.94 0.04 8.16253e-05 -5.93611e-05 0.000100928 0.0134576
0.96 0.04 0.00013299 0.00012666 0.000183655 0.0133097
0.98 0.04 7.70009e-05 0.000175913 0.000192027 0.0132542
1 0.04 0 0 0 0.0132548
0 0.06 0 0 0 0.00801321
0.02 0.06 -6.60833e-05 8.89982e-05 0.00011085 0.00795126
0.04 0.06 -0.00031454 0.000452298 0.000550916 0.00780754
0.06 0.06 -0.000829513 0.000944421 0.00125699 0.00763161
0.08 0.06 -0.00162909 0.00147422 0.0021971 0.00743818
0.1 0.06 -0.00270907 0.00198707 0.00335969 0.00724098
0.12 0.06 -0.00405015 0.00245228 0.0047347 0.00705196
0.14 0.06 -0.00562361 0.00285445 0.00630657 0.00688098
0.16 0.06 -0.00739558 0.00318757 0.00805327 0.0067358
0.18 0.06 -0.00932997 0.00345112 0.00994779 0.00662234
0.2 0.06 -0.0113904 0.0036475 0.0119602 0.00654498
0.22 0.06 -0.0135413 0.00378039 0.0140591 0.00650689
0.24 0.06 -0.0157484 0.00385367 0.016213 0.00651036
0.26 0.06 -0.0179788 0.00387083 0.0183907 0.00655697
0.28 0.06 -0.0202009 0.00383467 0.0205617 0.0066478
0.3 0.06 -0.0223844 0.00374721 0.0226959 0.00678353
0.32 0.06 -0.0244996 0.00360975 0.0247641 0.00696447
0.34 0.06 -0.0265175 0.00342304 0.0267375 0.00719051
0.36 0.06 -0.0284095 0.00318753 0.0285877 0.00746114
0.38 0.06 -0.0301475 0.00290367 0.030287 0.00777528
0.4 0.06 -0.0317042 0.00257218 0.0318083 0.00813124
0.42 0.06 -0.0330528 0.00219439 0.0331256 0.00852657
0.44 0.06 -0.0341682 0.00177249 0.0342141 0.00895796
0.46 0.06 -0.0350269 0.00130981 0.0350514 0.00942115
0.48 0.06 -0.0356081 0.00081101 0.0356173 0.00991089
0.5 0.06 -0.0358941 0.000282211 0.0358952 0.0104209
0.52 0.06 -0.0358714 -0.000268914 0.0358724 0.0109438
0.54 0.06 -0.0355313 -0.000833164 0.035541 0.0114714
0.56 0.06 -0.0348704 -0.0013999 0.0348985 0.0119947
0.58 0.06 -0.0338919 -0.00195722 0.0339483 0.0125041
0.6 0.06 -0.0326054 -0.00249223 0.0327005 0.0129897
0.62 0.06 -0.031028 -0.0029914 0.0311719 0.0134415
0.64 0.06 -0.0291838 -0.00344103 0.029386 0.01385
0.66 0.06 -0.0271044 -0.0038277 0.0273733 0.0142065
0.68 0.06 -0.0248281 -0.00413886 0.0251707 0.0145032
0.7 0.06 -0.0223996 -0.0043634 0.0228206 0.0147343
0.72 0.06 -0.0198689 -0.00449216 0.0203704 0.0148955
0.74 0.06 -0.0172903 -0.00451851 0.017871 0.014985
0.76 0.06 -0.0147207 -0.00443881 0.0153754 0.0150035
0.78 0.06 -0.0122181 -0.00425279 0.0129371 0.0149541
0.8 0.06 -0.00983935 -0.0039639 0.0106078 0.0148429
0.82 0.06 -0.00763852 -0.00357959 0.00843566 0.0146781
0.84 0.06 -0.00566424 -0.00311159 0.00646263 0.0144708
0.86 0.06 -0.00395747 -0.00257636 0.00472221 0.0142338
0.88 0.06 -0.00254891 -0.00199574 0.00323727 0.0139818
0.9 0.06 -0.00145615 -0.00139814 0.0020187 0.0137308
0.92 0.06 -0.00068067 -0.000820598 0.00106616 0.0134973
0.94 0.06 -0.000204421 -0.000312003 0.000373007 0.0132979
0.96 0.06 1.38699e-05 6.20776e-05 6.36082e-05 0.0131482
0.98 0.06 4.94582e-05 0.000212844 0.000218515 0.0130688
1 0.06 0 0 0 0.0130499
0 0.08 0 0 0 0.00825707
0.02 0.08 -0.000179993 0.00032336 0.00037008 0.00817236
0.04 0.08 -0.000615259 0.000975214 0.00115308 0.00799378
0.06 0.08 -0.0014008 0.00178075 0.00226568 0.00780162
0.08 0.08 -0.00253913 0.00262545 0.00365242 0.00760544
0.1 0.08 -0.00401568 0.00343742 0.00528598 0.00741446
0.12 0.08 -0.00580332 0.00417419 0.00714859 0.0072369
0.14 0.08 -0.00786649 0.00481309 0.00922212 0.00707969
0.16 0.08 -0.0101646 0.00534428 0.011484 0.00694837
0.18 0.08 -0.0126549 0.00576581 0.0139065 0.00684727
0.2 0.08 -0.0152937 0.0060802 0.016458 0.00677964
0.22 0.08 -0.0180382 0.00629206 0.0191041 0.00674792
0.24 0.08 -0.0208466 0.00640663 0.0218089 0.00675393
0.26 0.08 -0.0236785 0.00642877 0.0245357 0.00679902
0.28 0.08 -0.0264947 0.0063625 0.027248 0.00688418
0.3 0.08 -0.0292572 0.00621083 0.0299092 0.00701014
0.32 0.08 -0.0319288 0.00597583 0.0324832 0.00717732
0.34 0.08 -0.0344732 0.00565887 0.0349346 0.00738585
0.36 0.08 -0.0368547 0.005261 0.0372283 0.00763546
0.38 0.08 -0.0390383 0.0047833 0.0393302 0.00792541
0.4 0.08 -0.0409899 0.00422746 0.0412073 0.00825437
0.42 0.08 -0.0426768 0.00359611 0.042828 0.00862031
0.44 0.08 -0.0440682 0.00289333 0.044163 0.00902041
0.46 0.08 -0.0451356 0.00212501 0.0451856 0.0094509
0.48 0.08 -0.045854 0.00129913 0.0458724 0.00990706
0.5 0.08 -0.0462025 0.000425953 0.0462044 0.0103832
0.52 0.08 -0.046165 -0.000481824 0.0461675 0.0108725
0.54 0.08 -0.0457315 -0.00140915 0.0457532 0.0113673
0.56 0.08 -0.0448989 -0.00233878 0.0449598 0.0118592
0.58 0.08 -0.0436714 -0.00325153 0.0437923 0.0123392
0.6 0.08 -0.0420613 -0.00412672 0.0422633 0.0127977
0.62 0.08 -0.0400897 -0.00494277 0.0403932 0.0132254
0.64 0.08 -0.037786 -0.00567783 0.0382102 0.0136131
0.66 0.08 -0.0351887 -0.00631063 0.0357501 0.0139523
0.68 0.08 -0.0323442 -0.00682126 0.0330556 0.0142356
0.7 0.08 -0.0293065 -0.00719211 0.0301761 0.0144571
0.72 0.08 -0.0261362 -0.00740876 0.027166 0.0146129
0.74 0.08 -0.0228986 -0.00746076 0.0240834 0.014701
0.76 0.08 -0.0196626 -0.00734244 0.0209888 0.0147218
0.78 0.08 -0.0164981 -0.00705356 0.0179427 0.0146783
0.8 0.08 -0.0134741 -0.00659984 0.0150037 0.014576
0.82 0.08 -0.0106561 -0.00599343 0.0122259 0.0144227
0.84 0.08 -0.00810312 -0.00525336 0.00965703 0.0142282
0.86 0.08 -0.00586538 -0.00440607 0.00733595 0.0140044
0.88 0.08 -0.00398101 -0.00348624 0.00529172 0.0137644
0.9 0.08 -0.00247324 -0.00253812 0.00354386 0.0135222
0.92 0.08 -0.00134739 -0.00161763 0.00210527 0.013292
0.94 0.08 -0.000588045 -0.000795729 0.000989435 0.0130878
0.96 0.08 -0.000156356 -0.000163243 0.000226043 0.0129224
0.98 0.08 6.17825e-06 0.000162397 0.000162515 0.0128011
1 0.08 0 0 0 0.0127513
0 0.1 0 0 0 0.00852545
0.02 0.1 -0.000300305 0.000695748 0.000757792 0.00841392
0.04 0.1 -0.000933706 0.00173616 0.00197131 0.00819164
0.06 0.1 -0.00200422 0.002931 0.00355072 0.00797345
0.08 0.1 -0.003494 0.00415077 0.00542558 0.00776458
0.1 0.1 -0.00537447 0.00531118 0.00755603 0.00757037
0.12 0.1 -0.00760835 0.00636064 0.00991689 0.00739573
0.14 0.1 -0.0101522 0.00727047 0.012487 0.00724484
0.16 0.1 -0.0129586 0.00802749 0.0152436 0.00712108
0.18 0.1 -0.0159786 0.00862839 0.0181594 0.00702711
0.2 0.1 -0.0191626 0.00907568 0.0212031 0.00696496
0.22 0.1 -0.0224615 0.00937482 0.0243394 0.00693621
0.24 0.1 -0.0258274 0.00953221 0.0275303 0.00694209
0.26 0.1 -0.0292135 0.00955401 0.0307361 0.00698362
0.28 0.1 -0.0325745 0.00944543 0.0339163 0.00706166
0.3 0.1 -0.035866 0.0092105 0.0370297 0.00717693
0.32 0.1 -0.0390444 0.00885213 0.0400353 0.00733
0.34 0.1 -0.0420672 0.00837246 0.0428923 0.0075212
0.36 0.1 -0.0448927 0.00777331 0.0455607 0.00775058
0.38 0.1 -0.04748 0.00705672 0.0480016 0.0080178
0.4 0.1 -0.0497897 0.00622565 0.0501774 0.00832194
0.42 0.1 -0.0517837 0.00528453 0.0520527 0.00866146
0.44 0.1 -0.0534266 0.00423985 0.0535946 0.00903403
0.46 0.1 -0.0546858 0.00310068 0.0547736 0.00943643
0.48 0.1 -0.0555327 0.00187907 0.0555645 0.00986446
0.5 0.1 -0.0559435 0.000590289 0.0559466 0.0103129
0.52 0.1 -0.0559003 -0.000747023 0.0559053 0.0107756
0.54 0.1 -0.0553918 -0.00211094 0.055432 0.0112452
0.56 0.1 -0.0544147 -0.00347649 0.0545256 0.0117138
0.58 0.1 -0.0529738 -0.00481602 0.0531923 0.0121726
0.6 0.1 -0.0510836 -0.00609988 0.0514465 0.0126125
0.62 0.1 -0.0487677 -0.00729713 0.0493107 0.0130243
0.64 0.1 -0.04606 -0.00837657 0.0468155 0.0133988
0.66 0.1 -0.043004 -0.00930778 0.0439997 0.0137276
0.68 0.1 -0.0396524 -0.0100624 0.0409092 0.0140032
0.7 0.1 -0.0360669 -0.0106151 0.0375965 0.0142198
0.72 0.1 -0.0323161 -0.0109455 0.0341194 0.014373
0.74 0.1 -0.0284749 -0.0110385 0.0305397 0.0144607
0.76 0.1 -0.024622 -0.010886 0.0269212 0.0144831
0.78 0.1 -0.0208378 -0.0104876 0.0233281 0.0144426
0.8 0.1 -0.0172016 -0.00985153 0.0198229 0.0143443
0.82 0.1 -0.0137892 -0.00899521 0.0164638 0.0141954
0.84 0.1 -0.0106696 -0.00794586 0.0133033 0.014005
0.86 0.1 -0.00790197 -0.00674112 0.0103867 0.013784
0.88 0.1 -0.00553253 -0.00542984 0.0077519 0.0135444
0.9 0.1 -0.00359157 -0.00407334 0.0054306 0.0132985
0.92 0.1 -0.0020907 -0.00274732 0.00345236 0.013059
0.94 0.1 -0.00102052 -0.00154481 0.00185145 0.0128379
0.96 0.1 -0.000348983 -0.000580335 0.000677184 0.0126458
0.98 0.1 -4.20022e-05 4.11732e-06 4.22035e-05 0.0124708
1 0.1 0 0 0 0.0123832
0 0.12 0 0 0 0.00879333
0.02 0.12 -0.000419577 0.00120885 0.00127959 0.00865321
0.04 0.12 -0.00125224 0.00274125 0.00301373 0.00838274
0.06 0.12 -0.00261064 0.00440222 0.0051181 0.00813252
0.08 0.12 -0.00445449 0.00605513 0.00751712 0.00790427
0.1 0.12 -0.00673889 0.0076087 0.0101639 0.00770006
0.12 0.12 -0.00941462 0.00900569 0.0130283 0.00752184
0.14 0.12 -0.0124292 0.0102136 0.0160873 0.00737131
0.16 0.12 -0.0157281 0.0112171 0.0193183 0.0072498
0.18 0.12 -0.019256 0.0120121 0.0226955 0.00715833
0.2 0.12 -0.022958 0.0126015 0.0261891 0.00709771
0.22 0.12 -0.0267796 0.0129915 0.0297645 0.00706859
0.24 0.12 -0.0306678 0.0131897 0.0333838 0.00707161
0.26 0.12 -0.0345705 0.0132035 0.0370061 0.00710739
0.28 0.12 -0.0384372 0.0130392 0.0405887 0.00717663
0.3 0.12 -0.0422182 0.012702 0.0440876 0.00728005
0.32 0.12 -0.0458649 0.0121956 0.0474586 0.00741835
0.34 0.12 -0.0493295 0.0115229 0.0506575 0.00759212
0.36 0.12 -0.0525653 0.0106869 0.0536406 0.00780178
0.38 0.12 -0.0555265 0.00969059 0.0563658 0.00804737
0.4 0.12 -0.058169 0.00853863 0.0587924 0.0083285
0.42 0.12 -0.0604506 0.00723756 0.0608823 0.00864412
0.44 0.12 -0.0623317 0.00579674 0.0626007 0.00899245
0.46 0.12 -0.0637762 0.00422892 0.0639163 0.00937082
0.48 0.12 -0.0647524 0.00255079 0.0648026 0.00977558
0.5 0.12 -0.0652338 0.00078326 0.0652385 0.010202
0.52 0.12 -0.0652005 -0.00104836 0.0652089 0.0106443
0.54 0.12 -0.06464 -0.00291449 0.0647056 0.0110956
0.56 0.12 -0.063548 -0.00478157 0.0637276 0.0115482
0.58 0.12 -0.0619296 -0.0066126 0.0622817 0.0119936
0.6 0.12 -0.0598 -0.00836793 0.0603827 0.0124226
0.62 0.12 -0.0571848 -0.0100063 0.0580537 0.0128261
0.64 0.12 -0.0541205 -0.011486 0.0553259 0.0131948
0.66 0.12 -0.0506542 -0.0127665 0.0522382 0.01352
0.68 0.12 -0.0468437 -0.0138097 0.0488368 0.0137939
0.7 0.12 -0.0427562 -0.014582 0.0451744 0.0140103
0.72 0.12 -0.0384677 -0.0150555 0.041309 0.0141645
0.74 0.12 -0.0340606 -0.01521 0.0373024 0.0142538
0.76 0.12 -0.0296224 -0.0150343 0.0332192 0.0142779
0.78 0.12 -0.0252429 -0.0145275 0.0291248 0.0142389
0.8 0.12 -0.0210114 -0.0137001 0.0250833 0.0141413
0.82 0.12 -0.0170135 -0.012575 0.0211563 0.0139916
0.84 0.12 -0.0133284 -0.0111881 0.0174017 0.0137985
0.86 0.12 -0.0100248 -0.00958868 0.0138723 0.0135721
0.88 0.12 -0.00715827 -0.0078406 0.0106168 0.0133234
0.9 0.12 -0.00476782 -0.00602279 0.00768154 0.0130639
0.92 0.12 -0.00287357 -0.00423091 0.00511449 0.0128051
0.94 0.12 -0.00147482 -0.00257944 0.0029713 0.0125575
0.96 0.12 -0.000549213 -0.00120482 0.00132409 0.0123306
0.98 0.12 -9.04023e-05 -0.000269678 0.000284427 0.0120947
1 0.12 0 0 0 0.0119661
0 0.14 0 0 0 0.00903937
0.02 0.14 -0.000534387 0.00186008 0.00193532 0.00887038
0.04 0.14 -0.00156168 0.00398829 0.00428314 0.00855015
0.06 0.14 -0.0032034 0.00619256 0.00697206 0.0082647
0.08 0.14 -0.00539645 0.00833572 0.00993005 0.00801291
0.1 0.14 -0.00807854 0.0103247 0.0131096 0.00779402
0.12 0.14 -0.0111874 0.0121003 0.0164795 0.00760744
0.14 0.14 -0.0146606 0.0136289 0.020017 0.0074526
0.16 0.14 -0.0184359 0.0148948 0.023701 0.00732895
0.18 0.14 -0.022452 0.0158941 0.0275084 0.00723597
0.2 0.14 -0.0266484 0.0166305 0.0314119 0.00717326
0.22 0.14 -0.030966 0.0171115 0.0353793 0.00714059
0.24 0.14 -0.0353473 0.0173459 0.039374 0.00713799
0.26 0.14 -0.0397359 0.0173426 0.0433556 0.00716571
0.28 0.14 -0.044077 0.0171088 0.047281 0.00722429
0.3 0.14 -0.0483166 0.0166508 0.0511052 0.00731445
0.32 0.14 -0.0524019 0.0159732 0.0547824 0.00743705
0.34 0.14 -0.056281 0.01508 0.0582663 0.00759299
0.36 0.14 -0.0599029 0.0139748 0.0615114 0.00778305
0.38 0.14 -0.063218 0.0126625 0.0644736 0.00800776
0.4 0.14 -0.0661781 0.0111491 0.0671107 0.00826723
0.42 0.14 -0.0687375 0.0094437 0.0693832 0.00856101
0.44 0.14 -0.070853 0.00755881 0.071255 0.00888787
0.46 0.14 -0.0724854 0.00551122 0.0726946 0.00924573
0.48 0.14 -0.0735999 0.00332262 0.0736748 0.00963144
0.5 0.14 -0.0741675 0.00102003 0.0741745 0.0100408
0.52 0.14 -0.074166 -0.00136411 0.0741785 0.0104684
0.54 0.14 -0.073581 -0.00379198 0.0736786 0.0109076
0.56 0.14 -0.0724068 -0.00622085 0.0726736 0.011351
0.58 0.14 -0.0706479 -0.00860364 0.0711698 0.0117901
0.6 0.14 -0.068319 -0.0108899 0.0691814 0.0122157
0.62 0.14 -0.0654462 -0.0130273 0.0667302 0.0126183
0.64 0.14 -0.0620674 -0.0149625 0.0638455 0.0129884
0.66 0.14 -0.0582323 -0.0166439 0.0605641 0.0133169
0.68 0.14 -0.0540017 -0.0180228 0.0569299 0.0135954
0.7 0.14 -0.0494478 -0.0190557 0.0529925 0.0138171
0.72 0.14 -0.0446519 -0.0197066 0.0488072 0.0139764
0.74 0.14 -0.0397036 -0.0199489 0.0444335 0.0140703
0.76 0.14 -0.0346983 -0.0197676 0.0399341 0.0140976
0.78 0.14 -0.0297349 -0.0191604 0.0353735 0.01406
0.8 0.14 -0.0249124 -0.0181398 0.0308169 0.0139612
0.82 0.14 -0.0203271 -0.0167339 0.026329 0.0138073
0.84 0.14 -0.0160688 -0.014987 0.0219731 0.0136065
0.86 0.14 -0.012217 -0.0129607 0.017811 0.0133682
0.88 0.14 -0.00883802 -0.0107337 0.013904 0.0131031
0.9 0.14 -0.00598161 -0.0084029 0.0103145 0.0128221
0.92 0.14 -0.0036784 -0.00608383 0.0071094 0.0125359
0.94 0.14 -0.00193841 -0.00391185 0.00436577 0.0122545
0.96 0.14 -0.000750716 -0.00204386 0.00217737 0.0119864
0.98 0.14 -0.000137471 -0.000660495 0.000674649 0.0116856
1 0.14 0 0 0 0.0115147
0 0.16 0 0 0 0.00924539
0.02 0.16 -0.000643251 0.00264414 0.00272125 0.00904817
0.04 0.16 -0.00185735 0.00547007 0.0057768 0.00867851
0.06 0.16 -0.00377301 0.00829407 0.00911192 0.00835659
0.08 0.16 -0.00630499 0.0109837 0.0126647 0.00807893
0.1 0.16 -0.0093735 0.0134488 0.016393 0.00784236
0.12 0.16 -0.0129027 0.015632 0.0202691 0.00764401
0.14 0.16 -0.0168197 0.0175012 0.0242733 0.00748129
0.16 0.16 -0.0210543 0.0190421 0.0283882 0.00735191
0.18 0.16 -0.0255389 0.0202529 0.0325947 0.00725395
0.2 0.16 -0.0302077 0.0211386 0.0368694 0.00718587
0.22 0.16 -0.0349976 0.0217087 0.0411837 0.00714664
0.24 0.16 -0.0398468 0.0219735 0.0455039 0.00713569
0.26 0.16 -0.0446956 0.0219432 0.0497915 0.00715295
0.28 0.16 -0.0494855 0.0216264 0.0540047 0.00719882
0.3 0.16 -0.0541592 0.0210302 0.0580989 0.00727407
0.32 0.16 -0.0586605 0.0201604 0.0620282 0.00737976
0.34 0.16 -0.0629341 0.0190218 0.0657459 0.0075171
0.36 0.16 -0.0669257 0.0176193 0.0692062 0.00768731
0.38 0.16 -0.0705825 0.0159588 0.0723642 0.00789143
0.4 0.16 -0.0738532 0.0140487 0.0751775 0.00813015
0.42 0.16 -0.0766886 0.0119003 0.0776064 0.00840361
0.44 0.16 -0.0790427 0.0095294 0.0796151 0.00871122
0.46 0.16 -0.0808731 0.00695709 0.0811718 0.00905146
0.48 0.16 -0.0821422 0.00421025 0.08225 0.00942178
0.5 0.16 -0.0828181 0.00132217 0.0828286 0.00981841
0.52 0.16 -0.0828758 -0.00166724 0.0828926 0.0102363
0.54 0.16 -0.0822985 -0.00471166 0.0824333 0.0106692
0.56 0.16 -0.0810784 -0.00775871 0.0814488 0.0111097
0.58 0.16 -0.0792178 -0.0107508 0.079944 0.0115492
0.6 0.16 -0.0767301 -0.013626 0.0779306 0.0119785
0.62 0.16 -0.0736407 -0.01632 0.0754274 0.0123877
0.64 0.16 -0.0699873 -0.0187673 0.0724599 0.0127666
0.66 0.16 -0.0658204 -0.0209038 0.0690601 0.0131055
0.68 0.16 -0.0612033 -0.022669 0.0652666 0.0133953
0.7 0.16 -0.0562111 -0.0240087 0.0611237 0.0136282
0.72 0.16 -0.0509302 -0.0248771 0.0566812 0.013798
0.74 0.16 -0.0454563 -0.0252402 0.0519936 0.0139005
0.76 0.16 -0.0398925 -0.0250775 0.04712 0.0139339
0.78 0.16 -0.0343468 -0.0243848 0.0421226 0.0138988
0.8 0.16 -0.0289285 -0.0231753 0.0370669 0.0137986
0.82 0.16 -0.0237451 -0.0214818 0.0320203 0.0136387
0.84 0.16 -0.0188983 -0.0193569 0.0270524 0.0134268
0.86 0.16 -0.0144802 -0.0168738 0.0222352 0.0131721
0.88 0.16 -0.0105696 -0.0141266 0.0176431 0.012885
0.9 0.16 -0.00722882 -0.0112301 0.0133555 0.0125761
0.92 0.16 -0.00450086 -0.00831953 0.00945898 0.0122561
0.94 0.16 -0.00240813 -0.00555099 0.00605083 0.0119347
0.96 0.16 -0.000952157 -0.00310121 0.00324409 0.0116206
0.98 0.16 -0.000183155 -0.00116778 0.00118206 0.0112522
1 0.16 0 0 0 0.0110382
0 0.18 0 0 0 0.00939572
0.02 0.18 -0.000745553 0.00355428 0.00363163 0.00917142
0.04 0.18 -0.00213681 0.00717635 0.00748772 0.00875385
0.06 0.18 -0.00431391 0.0106947 0.011532 0.00839558
0.08 0.18 -0.00717069 0.0139859 0.015717 0.00809107
0.1 0.18 -0.0106103 0.0169666 0.0200111 0.00783506
0.12 0.18 -0.0145434 0.0195849 0.0243942 0.00762261
0.14 0.18 -0.0188866 0.0218129 0.0288532 0.00744932
0.16 0.18 -0.0235616 0.0236401 0.0333767 0.00731132
0.18 0.18 -0.0284943 0.0250676 0.0379514 0.00720538
0.2 0.18 -0.0336142 0.0261036 0.0425595 0.00712898
0.22 0.18 -0.0388539 0.0267597 0.0471774 0.00708031
0.24 0.18 -0.0441484 0.0270484 0.0517754 0.00705831
0.26 0.18 -0.0494348 0.0269815 0.0563187 0.00706263
0.28 0.18 -0.0546518 0.026569 0.0607679 0.00709358
0.3 0.18 -0.0597397 0.0258192 0.0650804 0.00715201
0.32 0.18 -0.0646394 0.0247387 0.0692117 0.00723924
0.34 0.18 -0.0692932 0.0233333 0.0731163 0.00735684
0.36 0.18 -0.0736442 0.0216091 0.0767491 0.00750652
0.38 0.18 -0.0776368 0.0195735 0.0800662 0.00768986
0.4 0.18 -0.0812172 0.0172364 0.0830261 0.00790819
0.42 0.18 -0.0843335 0.0146119 0.08559 0.00816229
0.44 0.18 -0.0869367 0.0117189 0.087723 0.00845222
0.46 0.18 -0.0889816 0.00858285 0.0893946 0.00877713
0.48 0.18 -0.0904274 0.00523566 0.0905789 0.00913502
0.5 0.18 -0.0912392 0.00171701 0.0912554 0.00952264
0.52 0.18 -0.0913888 -0.00192577 0.0914091 0.00993532
0.54 0.18 -0.090856 -0.00563766 0.0910307 0.010367
0.56 0.18 -0.0896297 -0.00935647 0.0901168 0.0108104
0.58 0.18 -0.0877093 -0.0130137 0.0886695 0.0112569
0.6 0.18 -0.0851054 -0.0165355 0.0866969 0.0116968
0.62 0.18 -0.081841 -0.0198449 0.0842126 0.0121198
0.64 0.18 -0.0779524 -0.0228633 0.0812362 0.0125151
0.66 0.18 -0.0734898 -0.0255131 0.0777924 0.0128721
0.68 0.18 -0.0685168 -0.0277207 0.073912 0.0131807
0.7 0.18 -0.0631111 -0.0294193 0.0696312 0.0134319
0.72 0.18 -0.0573627 -0.0305523 0.0649917 0.0136183
0.74 0.18 -0.0513731 -0.0310762 0.060041 0.0137348
0.76 0.18 -0.0452531 -0.0309639 0.0548325 0.0137783
0.78 0.18 -0.0391198 -0.0302072 0.049425 0.0137487
0.8 0.18 -0.0330938 -0.0288192 0.0438833 0.0136483
0.82 0.18 -0.0272948 -0.0268361 0.0382777 0.0134821
0.84 0.18 -0.021838 -0.0243181 0.0326844 0.0132574
0.86 0.18 -0.0168299 -0.0213499 0.0271858 0.0129832
0.88 0.18 -0.0123638 -0.0180407 0.0218707 0.0126698
0.9 0.18 -0.00851654 -0.014523 0.016836 0.0123281
0.92 0.18 -0.00534546 -0.0109525 0.0121873 0.0119691
0.94 0.18 -0.00288678 -0.00750606 0.00804204 0.0116028
0.96 0.18 -0.00115512 -0.00438065 0.00453039 0.0112384
0.98 0.18 -0.000228124 -0.00179129 0.00180576 0.0107999
1 0.18 0 0 0 0.0105421
0 0.2 0 0 0 0.00947659
0.02 0.2 -0.000841021 0.00458301 0.00465954 0.0092267
0.04 0.2 -0.0023987 0.00909497 0.00940597 0.00876351
0.06 0.2 -0.0048226 0.0133795 0.0142221 0.00836991
0.08 0.2 -0.00798721 0.0173257 0.0190781 0.00803855
0.1 0.2 -0.0117795 0.0208604 0.0239565 0.00776222
0.12 0.2 -0.016097 0.0239402 0.0288487 0.00753417
0.14 0.2 -0.0208461 0.0265442 0.0337514 0.0073483
0.16 0.2 -0.0259404 0.0286678 0.0386619 0.00719932
0.18 0.2 -0.0312996 0.0303167 0.0435749 0.00708283
0.2 0.2 -0.0368486 0.0315032 0.0484796 0.0069954
0.22 0.2 -0.0425161 0.0322422 0.0533589 0.00693455
0.24 0.2 -0.0482342 0.0325487 0.058189 0.00689881
0.26 0.2 -0.0539375 0.0324366 0.0629395 0.00688761
0.28 0.2 -0.0595626 0.0319174 0.0675753 0.00690123
0.3 0.2 -0.0650476 0.0310007 0.0720571 0.00694068
0.32 0.2 -0.0703317 0.0296942 0.0763432 0.00700756
0.34 0.2 -0.0753551 0.0280044 0.0803906 0.00710386
0.36 0.2 -0.0800592 0.0259386 0.0841563 0.00723182
0.38 0.2 -0.0843863 0.0235055 0.0875988 0.00739365
0.4 0.2 -0.0882802 0.0207167 0.0906785 0.00759133
0.42 0.2 -0.0916869 0.0175887 0.0933587 0.00782636
0.44 0.2 -0.0945547 0.0141435 0.0956066 0.00809952
0.46 0.2 -0.0968353 0.0104103 0.0973933 0.00841064
0.48 0.2 -0.098485 0.0064262 0.0986944 0.00875837
0.5 0.2 -0.099465 0.00223686 0.0994902 0.00914
0.52 0.2 -0.0997434 -0.00210306 0.0997656 0.00955125
0.54 0.2 -0.099296 -0.00652999 0.0995104 0.00998635
0.56 0.2 -0.0981073 -0.0109719 0.0987189 0.010438
0.58 0.2 -0.0961724 -0.0153492 0.0973896 0.0108976
0.6 0.2 -0.0934977 -0.0195759 0.0955251 0.011355
0.62 0.2 -0.0901026 -0.0235615 0.0931323 0.0117994
0.64 0.2 -0.0860202 -0.0272134 0.0902222 0.012219
0.66 0.2 -0.0812985 -0.0304395 0.0868102 0.0126021
0.68 0.2 -0.0760008 -0.0331516 0.0829165 0.0129376
0.7 0.2 -0.0702054 -0.0352687 0.0785664 0.0132151
0.72 0.2 -0.0640055 -0.0367211 0.0737912 0.0134258
0.74 0.2 -0.0575077 -0.0374541 0.0686291 0.0135629
0.76 0.2 -0.0508302 -0.0374317 0.0631256 0.0136223
0.78 0.2 -0.0441 -0.03664 0.0573349 0.0136026
0.8 0.2 -0.0374493 -0.03509 0.0513202 0.013505
0.82 0.2 -0.0310119 -0.0328201 0.0451541 0.013334
0.84 0.2 -0.0249182 -0.029897 0.0389197 0.0130963
0.86 0.2 -0.0192908 -0.0264162 0.0327101 0.0128009
0.88 0.2 -0.0142401 -0.0225016 0.026629 0.0124584
0.9 0.2 -0.00985942 -0.0183043 0.0207908 0.0120801
0.92 0.2 -0.00622256 -0.0140005 0.015321 0.0116776
0.94 0.2 -0.0033809 -0.00978895 0.0103564 0.0112621
0.96 0.2 -0.0013629 -0.00588815 0.00604383 0.0108435
0.98 0.2 -0.000273401 -0.00253237 0.00254709 0.0103318
1 0.2 0 0 0 0.0100289
0 0.22 0 0 0 0.00947575
0.02 0.22 -0.000929477 0.00572235 0.00579735 0.00920196
0.04 0.22 -0.00264206 0.0112125 0.0115196 0.00869596
0.06 0.22 -0.00529659 0.0163314 0.0171689 0.00826867
0.08 0.22 -0.0087498 0.0209838 0.0227349 0.0079111
0.1 0.22 -0.0128737 0.0251095 0.0282173 0.00761427
0.12 0.22 -0.0175534 0.0286764 0.0336223 0.0073697
0.14 0.22 -0.0226854 0.0316731 0.0389592 0.00716976
0.16 0.22 -0.0281758 0.0341027 0.0442365 0.00700787
0.18 0.22 -0.0339382 0.0359776 0.049459 0.00687855
0.2 0.22 -0.0398931 0.0373151 0.0546249 0.00677757
0.22 0.22 -0.0459659 0.0381343 0.0597251 0.00670191
0.24 0.22 -0.052086 0.0384535 0.0647427 0.00664972
0.26 0.22 -0.058186 0.038289 0.0696539 0.00662031
0.28 0.22 -0.0642011 0.0376544 0.0744287 0.00661399
0.3 0.22 -0.0700678 0.0365604 0.0790326 0.00663198
0.32 0.22 -0.075724 0.0350158 0.083428 0.00667622
0.34 0.22 -0.0811089 0.0330281 0.0875758 0.0067492
0.36 0.22 -0.0861624 0.0306055 0.0914366 0.00685372
0.38 0.22 -0.0908252 0.0277578 0.0949721 0.00699267
0.4 0.22 -0.0950395 0.0244982 0.0981462 0.00716876
0.42 0.22 -0.0987492 0.0208451 0.100925 0.00738427
0.44 0.22 -0.1019 0.0168233 0.10328 0.00764077
0.46 0.22 -0.104441 0.0124655 0.105183 0.00793884
0.48 0.22 -0.106325 0.00781342 0.106612 0.00827786
0.5 0.22 -0.107509 0.00291829 0.107549 0.00865573
0.52 0.22 -0.107957 -0.00215832 0.107979 0.00906864
0.54 0.22 -0.10764 -0.00734461 0.10789 0.00951111
0.56 0.22 -0.106537 -0.0125589 0.107274 0.009976
0.58 0.22 -0.104636 -0.0177105 0.106125 0.0104545
0.6 0.22 -0.10194 -0.022701 0.104437 0.0109361
0.62 0.22 -0.0984623 -0.027426 0.102211 0.0114093