Variables = x, y, u, v, umag, p
ZONE I= 201 J= 51 F=point
0 0 0.0099 0 0.0099 -0.0398839
0.0703713 0 -1.73472e-18 0 1.73472e-18 -0.0537613
0.140743 0 0 -8.47033e-22 8.47033e-22 -0.0549465
0.211114 0 1.73472e-18 8.47033e-22 1.73472e-18 -0.0562048
0.281485 0 0 -8.47033e-22 8.47033e-22 -0.0575435
0.351857 0 0 0 0 -0.0589335
0.422228 0 0 -8.47033e-22 8.47033e-22 -0.0603645
0.492599 0 0 4.23516e-22 4.23516e-22 -0.0618296
0.562971 0 0 0 0 -0.0633241
0.633342 0 1.73472e-18 -4.23516e-22 1.73472e-18 -0.0648455
0.703713 0 -1.73472e-18 8.47033e-22 1.73472e-18 -0.0663915
0.774085 0 0 -8.47033e-22 8.47033e-22 -0.0679622
0.844456 0 -1.73472e-18 8.47033e-22 1.73472e-18 -0.0695568
0.914827 0 1.73472e-18 0 1.73472e-18 -0.0711771
0.985199 0 0 8.47033e-22 8.47033e-22 -0.0728234
1.05557 0 0 -8.47033e-22 8.47033e-22 -0.0744996
1.12594 0 0 -8.47033e-22 8.47033e-22 -0.0762066
1.19631 0 0 0 0 -0.0779508
1.26668 0 0 0 0 -0.0797338
1.33706 0 0 1.69407e-21 1.69407e-21 -0.0815655
1.40743 0 0 1.69407e-21 1.69407e-21 -0.0834479
1.4778 0 0 1.69407e-21 1.69407e-21 -0.0853966
1.54817 0 0 0 0 -0.0874146
1.61854 0 0 3.38813e-21 3.38813e-21 -0.0895286
1.68891 0 1.73472e-18 3.38813e-21 1.73473e-18 -0.0917428
1.75928 0 1.73472e-18 0 1.73472e-18 -0.0941107
1.82965 0 1.73472e-18 0 1.73472e-18 -0.0966445
1.90003 0 0 -1.35525e-20 1.35525e-20 -0.0994871
1.9704 0 -1.73472e-18 0 1.73472e-18 -0.102737
2.04077 -0.00166634 0 -2.1684e-19 2.1684e-19 -0.107088
2.11114 -0.0125128 -1.73472e-18 0 1.73472e-18 -0.110061
2.18151 -0.0341173 -4.33681e-19 2.1684e-19 4.8487e-19 -0.108227
2.25188 -0.0680912 -1.6263e-19 4.74338e-20 1.69407e-19 -0.102872
2.32225 -0.117717 -2.1684e-19 0 2.1684e-19 -0.0963863
2.39263 -0.176764 0 0 0 -0.0911296
2.463 -0.235812 2.1684e-19 -2.1684e-19 3.06659e-19 -0.0881339
2.53337 -0.294859 0 0 0 -0.0863532
2.60374 -0.353906 2.1684e-19 2.1684e-19 3.06659e-19 -0.0850942
2.67411 -0.412954 0 1.0842e-19 1.0842e-19 -0.0842266
2.74448 -0.472001 -2.1684e-19 0 2.1684e-19 -0.0835757
2.81485 -0.531049 0 0 0 -0.0830796
2.88522 -0.590096 -2.1684e-19 0 2.1684e-19 -0.0826766
2.9556 -0.649144 -2.1684e-19 -1.0842e-19 2.42435e-19 -0.082334
3.02597 -0.708191 0 0 0 -0.0820285
3.09634 -0.767239 1.0842e-19 -1.0842e-19 1.53329e-19 -0.0817588
3.16671 -0.826286 1.0842e-19 0 1.0842e-19 -0.0815211
3.23708 -0.885317 0 -5.42101e-20 5.42101e-20 -0.0813811
3.30745 -0.934009 1.0842e-19 -5.42101e-20 1.21217e-19 -0.0813588
3.37782 -0.967283 1.0842e-19 0 1.0842e-19 -0.081371
3.4482 -0.988302 0 -1.35525e-20 1.35525e-20 -0.0813922
3.51857 -0.998618 0 6.77626e-21 6.77626e-21 -0.0814341
3.58894 -1 -1.0842e-19 -3.38813e-21 1.08473e-19 -0.0814445
3.65931 -1 1.0842e-19 0 1.0842e-19 -0.0814119
3.72968 -1 0 0 0 -0.0813724
3.80005 -1 0 -1.69407e-21 1.69407e-21 -0.0813198
3.87042 -1 0 0 0 -0.0812586
3.94079 -1 0 -1.69407e-21 1.69407e-21 -0.0811871
4.01117 -1 -2.1684e-19 0 2.1684e-19 -0.0811062
4.08154 -1 0 1.69407e-21 1.69407e-21 -0.0810154
4.15191 -1 0 1.69407e-21 1.69407e-21 -0.0809148
4.22228 -1 0 0 0 -0.0808045
4.29265 -1 -2.1684e-19 -1.69407e-21 2.16847e-19 -0.0806843
4.36302 -1 -2.1684e-19 0 2.1684e-19 -0.0805543
4.43339 -1 0 1.69407e-21 1.69407e-21 -0.0804145
4.50377 -1 2.1684e-19 0 2.1684e-19 -0.0802648
4.57414 -1 0 1.69407e-21 1.69407e-21 -0.0801053
4.64451 -1 0 1.69407e-21 1.69407e-21 -0.0799359
4.71488 -1 4.33681e-19 0 4.33681e-19 -0.0797567
4.78525 -1 4.33681e-19 0 4.33681e-19 -0.0795675
4.85562 -1 0 -1.69407e-21 1.69407e-21 -0.0793684
4.92599 -1 4.33681e-19 -1.69407e-21 4.33684e-19 -0.0791594
4.99636 -1 0 0 0 -0.0789405
5.06674 -1 0 0 0 -0.0787116
5.13711 -1 0 1.69407e-21 1.69407e-21 -0.0784728
5.20748 -1 -4.33681e-19 0 4.33681e-19 -0.0782239
5.27785 -1 0 0 0 -0.077965
5.34822 -1 4.33681e-19 0 4.33681e-19 -0.0776961
5.41859 -1 0 0 0 -0.0774171
5.48896 -1 4.33681e-19 1.69407e-21 4.33684e-19 -0.077128
5.55934 -1 4.33681e-19 0 4.33681e-19 -0.0768288
5.62971 -1 -4.33681e-19 0 4.33681e-19 -0.0765193
5.70008 -1 4.33681e-19 -1.69407e-21 4.33684e-19 -0.0761997
5.77045 -1 -4.33681e-19 1.69407e-21 4.33684e-19 -0.0758698
5.84082 -1 -4.33681e-19 -1.69407e-21 4.33684e-19 -0.0755295
5.91119 -1 4.33681e-19 1.69407e-21 4.33684e-19 -0.0751789
5.98156 -1 0 -1.69407e-21 1.69407e-21 -0.0748179
6.05193 -1 0 1.69407e-21 1.69407e-21 -0.0744463
6.12231 -1 -4.33681e-19 0 4.33681e-19 -0.0740642
6.19268 -1 -4.33681e-19 0 4.33681e-19 -0.0736715
6.26305 -1 0 0 0 -0.073268
6.33342 -1 0 0 0 -0.0728536
6.40379 -1 4.33681e-19 0 4.33681e-19 -0.0724284
6.47416 -1 0 0 0 -0.0719921
6.54453 -1 4.33681e-19 -1.69407e-21 4.33684e-19 -0.0715447
6.61491 -1 0 0 0 -0.071086
6.68528 -1 0 1.69407e-21 1.69407e-21 -0.070616
6.75565 -1 4.33681e-19 0 4.33681e-19 -0.0701344
6.82602 -1 0 0 0 -0.0696411
6.89639 -1 0 1.69407e-21 1.69407e-21 -0.069136
6.96676 -1 -4.33681e-19 0 4.33681e-19 -0.0686189
7.03713 -1 4.33681e-19 -1.69407e-21 4.33684e-19 -0.0680896
7.1075 -1 0 1.69407e-21 1.69407e-21 -0.0675479
7.17788 -1 0 0 0 -0.0669937
7.24825 -1 0 0 0 -0.0664266
7.31862 -1 8.67362e-19 0 8.67362e-19 -0.0658466
7.38899 -1 0 1.69407e-21 1.69407e-21 -0.0652533
7.45936 -1 -8.67362e-19 -1.69407e-21 8.67363e-19 -0.0646466
7.52973 -1 8.67362e-19 1.69407e-21 8.67363e-19 -0.0640261
7.6001 -1 0 -1.69407e-21 1.69407e-21 -0.0633916
7.67048 -1 0 0 0 -0.0627428
7.74085 -1 0 -1.69407e-21 1.69407e-21 -0.0620795
7.81122 -1 0 0 0 -0.0614013
7.88159 -1 8.67362e-19 -1.69407e-21 8.67363e-19 -0.060708
7.95196 -1 8.67362e-19 1.69407e-21 8.67363e-19 -0.0599992
8.02233 -1 0 0 0 -0.0592746
8.0927 -1 0 0 0 -0.058534
8.16307 -1 0 1.69407e-21 1.69407e-21 -0.0577769
8.23345 -1 0 -8.47033e-22 8.47033e-22 -0.0570032
8.30382 -1 -8.67362e-19 -8.47033e-22 8.67362e-19 -0.0562125
8.37419 -1 8.67362e-19 8.47033e-22 8.67362e-19 -0.0554045
8.44456 -1 0 0 0 -0.0545789
8.51493 -1 0 0 0 -0.0537356
8.5853 -1 0 -8.47033e-22 8.47033e-22 -0.0528742
8.65567 -1 -8.67362e-19 8.47033e-22 8.67362e-19 -0.0519946
8.72605 -1 0 -8.47033e-22 8.47033e-22 -0.0510966
8.79642 -1 -8.67362e-19 0 8.67362e-19 -0.05018
8.86679 -1 -8.67362e-19 0 8.67362e-19 -0.0492449
8.93716 -1 -8.67362e-19 -8.47033e-22 8.67362e-19 -0.0482911
9.00753 -1 0 0 0 -0.0473187
9.0779 -1 0 0 0 -0.0463278
9.14827 -1 0 4.23516e-22 4.23516e-22 -0.0453186
9.21864 -1 0 4.23516e-22 4.23516e-22 -0.0442913
9.28902 -1 0 4.23516e-22 4.23516e-22 -0.0432463
9.35939 -1 -8.67362e-19 2.11758e-22 8.67362e-19 -0.042184
9.42976 -1 8.67362e-19 0 8.67362e-19 -0.041105
9.50013 -1 8.67362e-19 0 8.67362e-19 -0.0400099
9.5705 -1 0 0 0 -0.0388994
9.64087 -1 0 0 0 -0.0377745
9.71124 -1 -8.67362e-19 -4.23516e-22 8.67362e-19 -0.0366361
9.78162 -1 0 -8.47033e-22 8.47033e-22 -0.0354853
9.85199 -1 8.67362e-19 -8.47033e-22 8.67362e-19 -0.0343233
9.92236 -1 0 0 0 -0.0331516
9.99273 -1 0 0 0 -0.0319715
10.0631 -1 8.67362e-19 0 8.67362e-19 -0.0307846
10.1335 -1 -8.67362e-19 1.69407e-21 8.67363e-19 -0.0295927
10.2038 -1 0 0 0 -0.0283974
10.2742 -1 -8.67362e-19 0 8.67362e-19 -0.0272008
10.3446 -1 8.67362e-19 0 8.67362e-19 -0.0260048
10.415 -1 -8.67362e-19 -3.38813e-21 8.67368e-19 -0.0248115
10.4853 -1 0 3.38813e-21 3.38813e-21 -0.0236228
10.5557 -1 0 0 0 -0.0224412
10.6261 -1 4.33681e-19 0 4.33681e-19 -0.0212686
10.6964 -1 0 0 0 -0.0201074
10.7668 -1 4.33681e-19 3.38813e-21 4.33694e-19 -0.0189598
10.8372 -1 4.33681e-19 0 4.33681e-19 -0.017828
10.9076 -1 -4.33681e-19 0 4.33681e-19 -0.0167142
10.9779 -1 0 0 0 -0.0156206
11.0483 -1 -4.33681e-19 -3.38813e-21 4.33694e-19 -0.0145493
11.1187 -1 0 -3.38813e-21 3.38813e-21 -0.0135022
11.189 -1 0 -3.38813e-21 3.38813e-21 -0.0124814
11.2594 -1 2.1684e-19 0 2.1684e-19 -0.0114885
11.3298 -1 2.1684e-19 -6.77626e-21 2.16946e-19 -0.0105254
11.4002 -1 2.1684e-19 0 2.1684e-19 -0.00959368
11.4705 -1 0 -6.77626e-21 6.77626e-21 -0.00869469
11.5409 -1 -2.1684e-19 0 2.1684e-19 -0.00782976
11.6113 -1 1.0842e-19 0 1.0842e-19 -0.00700001
11.6816 -1 -1.0842e-19 6.77626e-21 1.08632e-19 -0.00620645
11.752 -1 -1.0842e-19 -6.77626e-21 1.08632e-19 -0.0054499
11.8224 -1 -2.71051e-20 6.77626e-21 2.79393e-20 -0.004731
11.8928 -1 -1.69407e-21 -6.77626e-21 6.98481e-21 -0.00405023
11.9631 -1 0 0 0 -0.00340792
12.0335 -1 5.42101e-20 -6.77626e-21 5.4632e-20 -0.00280424
12.1039 -1 1.0842e-19 0 1.0842e-19 -0.00223924
12.1742 -1 0 0 0 -0.00171277
12.2446 -1 0 -6.77626e-21 6.77626e-21 -0.00122459
12.315 -1 2.1684e-19 -6.77626e-21 2.16946e-19 -0.00077429
12.3854 -1 0 0 0 -0.000361432
12.4557 -1 0 -6.77626e-21 6.77626e-21 1.46585e-05
12.5261 -1 -2.1684e-19 0 2.1684e-19 0.000354569
12.5965 -1 4.33681e-19 0 4.33681e-19 0.000659189
12.6668 -1 4.33681e-19 0 4.33681e-19 0.000929192
12.7372 -1 0 -3.38813e-21 3.38813e-21 0.00116566
12.8076 -1 4.33681e-19 0 4.33681e-19 0.00136926
12.878 -1 -4.33681e-19 0 4.33681e-19 0.00154127
12.9483 -1 0 -3.38813e-21 3.38813e-21 0.00168221
13.0187 -1 4.33681e-19 0 4.33681e-19 0.00179361
13.0891 -1 0 -3.38813e-21 3.38813e-21 0.00187568
13.1594 -1 -4.33681e-19 0 4.33681e-19 0.00193029
13.2298 -1 0 3.38813e-21 3.38813e-21 0.00195706
13.3002 -1 0 0 0 0.00195851
13.3706 -1 0 0 0 0.00193313
13.4409 -1 0 0 0 0.00188471
13.5113 -1 -8.67362e-19 0 8.67362e-19 0.0018096
13.5817 -1 0 0 0 0.00171426
13.652 -1 0 0 0 0.00159062
13.7224 -1 0 0 0 0.00145118
13.7928 -1 0 0 0 0.00127783
13.8632 -1 8.67362e-19 0 8.67362e-19 0.00109797
13.9335 -1 0 0 0 0.000866391
14.0039 -1 8.67362e-19 6.77626e-21 8.67388e-19 0.000653646
14.0743 -1 0.00548265 -5.12396e-05 0.00548289 0.000301581
0 0.02 0.0770331 -6.54888e-05 0.0770331 -0.0531603
0.0703713 0.02 0.07632 -0.000118728 0.0763201 -0.0537535
0.140743 0.02 0.0766826 -9.10561e-05 0.0766826 -0.0549501
0.211114 0.02 0.0769126 -6.94911e-05 0.0769127 -0.0562094
0.281485 0.02 0.0771556 -6.06009e-05 0.0771556 -0.0575483
0.351857 0.02 0.0773872 -5.50652e-05 0.0773872 -0.0589383
0.422228 0.02 0.0776133 -5.15687e-05 0.0776133 -0.0603692
0.492599 0.02 0.0778326 -4.9114e-05 0.0778326 -0.0618343
0.562971 0.02 0.0780501 -4.78842e-05 0.0780501 -0.0633287
0.633342 0.02 0.0782655 -4.73675e-05 0.0782655 -0.0648502
0.703713 0.02 0.0784856 -4.80499e-05 0.0784856 -0.0663963
0.774085 0.02 0.0787095 -4.93698e-05 0.0787095 -0.0679672
0.844456 0.02 0.0789465 -5.20407e-05 0.0789465 -0.069562
0.914827 0.02 0.0791944 -5.53379e-05 0.0791944 -0.0711827
0.985199 0.02 0.0794659 -6.02687e-05 0.0794659 -0.0728294
1.05557 0.02 0.0797564 -6.58548e-05 0.0797564 -0.0745062
1.12594 0.02 0.080084 -7.35604e-05 0.0800841 -0.0762139
1.19631 0.02 0.0804402 -8.2032e-05 0.0804402 -0.0779591
1.26668 0.02 0.0808524 -9.34758e-05 0.0808524 -0.0797431
1.33706 0.02 0.0813047 -0.000106032 0.0813047 -0.081576
1.40743 0.02 0.0818423 -0.000123186 0.0818424 -0.0834599
1.4778 0.02 0.0824357 -0.000142455 0.0824359 -0.0854107
1.54817 0.02 0.0831665 -0.000169719 0.0831667 -0.0874309
1.61854 0.02 0.0839773 -0.000202481 0.0839776 -0.0895484
1.68891 0.02 0.0850358 -0.000252222 0.0850362 -0.0917663
1.75928 0.02 0.0862245 -0.000322899 0.0862251 -0.094141
1.82965 0.02 0.0879684 -0.000453412 0.0879696 -0.0966823
1.90003 0.02 0.0900602 -0.000732554 0.0900632 -0.0995398
1.9704 0.02 0.0941975 -0.00171054 0.0942131 -0.102738
2.04077 0.018367 0.0935859 -0.00572704 0.093761 -0.106821
2.11114 0.00773744 0.0767298 -0.0107733 0.0774825 -0.109572
2.18151 -0.013435 0.0482555 -0.0113194 0.0495653 -0.107878
2.25188 -0.0467294 0.0194204 -0.00573721 0.0202501 -0.102889
2.32225 -0.0953622 -0.000640588 0.00223129 0.00232142 -0.0966962
2.39263 -0.153229 -0.00890581 0.00669236 0.0111401 -0.0914776
2.463 -0.211095 -0.0101276 0.00746264 0.0125801 -0.0883941
2.53337 -0.268962 -0.00969474 0.00735648 0.0121699 -0.0865469
2.60374 -0.326828 -0.00915593 0.00703578 0.011547 -0.0852442
2.67411 -0.384695 -0.00848764 0.0065985 0.0107508 -0.0843441
2.74448 -0.442561 -0.00791359 0.00620976 0.0100591 -0.0836708
2.81485 -0.500428 -0.00742135 0.00587609 0.00946599 -0.0831586
2.88522 -0.558294 -0.00703776 0.00561032 0.00900032 -0.0827452
2.9556 -0.616161 -0.00672482 0.00537327 0.00860786 -0.0823968
3.02597 -0.674028 -0.00641419 0.00509758 0.00819312 -0.0820882
3.09634 -0.731894 -0.00602935 0.00470712 0.00764918 -0.0818174
3.16671 -0.789761 -0.00539846 0.0040667 0.0067588 -0.0815745
3.23708 -0.847611 -0.00460598 0.00313661 0.00557256 -0.0814176
3.30745 -0.895328 -0.00415406 0.00223608 0.00471766 -0.0813758
3.37782 -0.927937 -0.00416585 0.00157575 0.00445391 -0.0813748
3.4482 -0.948536 -0.00440502 0.00106256 0.00453136 -0.0813854
3.51857 -0.958645 -0.00496801 0.000659307 0.00501157 -0.0814171
3.58894 -0.96 -0.00590836 0.000412522 0.00592275 -0.0814221
3.65931 -0.96 -0.00684502 0.000307695 0.00685193 -0.0813904
3.72968 -0.96 -0.00762879 0.000263814 0.00763335 -0.0813531
3.80005 -0.96 -0.00834987 0.000241017 0.00835335 -0.081302
3.87042 -0.96 -0.00902198 0.000228204 0.00902487 -0.0812418
3.94079 -0.96 -0.00966545 0.000219185 0.00966793 -0.0811711
4.01117 -0.96 -0.0102845 0.000212323 0.0102867 -0.0810907
4.08154 -0.96 -0.0108848 0.000206539 0.0108868 -0.0810004
4.15191 -0.96 -0.0114684 0.000201534 0.0114702 -0.0809003
4.22228 -0.96 -0.0120375 0.00019704 0.0120391 -0.0807903
4.29265 -0.96 -0.0125932 0.000192953 0.0125947 -0.0806704
4.36302 -0.96 -0.0131368 0.000189176 0.0131382 -0.0805408
4.43339 -0.96 -0.0136691 0.000185655 0.0136703 -0.0804012
4.50377 -0.96 -0.0141907 0.000182347 0.0141919 -0.0802518
4.57414 -0.96 -0.0147023 0.00017922 0.0147034 -0.0800926
4.64451 -0.96 -0.0152044 0.000176251 0.0152054 -0.0799234
4.71488 -0.96 -0.0156974 0.000173422 0.0156984 -0.0797444
4.78525 -0.96 -0.0161817 0.000170719 0.0161826 -0.0795554
4.85562 -0.96 -0.0166578 0.00016813 0.0166586 -0.0793566
4.92599 -0.96 -0.0171259 0.000165647 0.0171267 -0.0791478
4.99636 -0.96 -0.0175863 0.000163262 0.017587 -0.0789291
5.06674 -0.96 -0.0180393 0.000160968 0.01804 -0.0787004
5.13711 -0.96 -0.0184852 0.000158762 0.0184859 -0.0784617
5.20748 -0.96 -0.0189243 0.000156639 0.0189249 -0.078213
5.27785 -0.96 -0.0193567 0.000154594 0.0193573 -0.0779543
5.34822 -0.96 -0.0197827 0.000152625 0.0197833 -0.0776855
5.41859 -0.96 -0.0202026 0.000150729 0.0202031 -0.0774067
5.48896 -0.96 -0.0206165 0.000148902 0.020617 -0.0771178
5.55934 -0.96 -0.0210245 0.000147142 0.0210251 -0.0768187
5.62971 -0.96 -0.021427 0.000145448 0.0214275 -0.0765094
5.70008 -0.96 -0.0218241 0.000143816 0.0218246 -0.0761899
5.77045 -0.96 -0.022216 0.000142246 0.0222164 -0.0758601
5.84082 -0.96 -0.0226027 0.000140735 0.0226032 -0.07552
5.91119 -0.96 -0.0229846 0.000139282 0.022985 -0.0751695
5.98156 -0.96 -0.0233617 0.000137886 0.0233621 -0.0748086
6.05193 -0.96 -0.0237342 0.000136544 0.0237346 -0.0744372
6.12231 -0.96 -0.0241022 0.000135256 0.0241026 -0.0740552
6.19268 -0.96 -0.0244659 0.00013402 0.0244663 -0.0736625
6.26305 -0.96 -0.0248254 0.000132834 0.0248257 -0.0732592
6.33342 -0.96 -0.0251808 0.000131695 0.0251811 -0.0728449
6.40379 -0.96 -0.0255322 0.000130603 0.0255326 -0.0724198
6.47416 -0.96 -0.0258798 0.000129553 0.0258802 -0.0719836
6.54453 -0.96 -0.0262237 0.000128544 0.026224 -0.0715363
6.61491 -0.96 -0.0265638 0.000127572 0.0265641 -0.0710778
6.68528 -0.96 -0.0269004 0.000126634 0.0269007 -0.0706078
6.75565 -0.96 -0.0272334 0.000125726 0.0272337 -0.0701263
6.82602 -0.96 -0.0275629 0.000124843 0.0275632 -0.0696331
6.89639 -0.96 -0.0278889 0.000123982 0.0278892 -0.0691281
6.96676 -0.96 -0.0282115 0.000123136 0.0282118 -0.0686111
7.03713 -0.96 -0.0285306 0.0001223 0.0285309 -0.0680819
7.1075 -0.96 -0.0288463 0.000121467 0.0288465 -0.0675403
7.17788 -0.96 -0.0291584 0.000120626 0.0291586 -0.0669862
7.24825 -0.96 -0.0294668 0.00011977 0.0294671 -0.0664193
7.31862 -0.96 -0.0297715 0.000118887 0.0297718 -0.0658394
7.38899 -0.96 -0.0300723 0.000117965 0.0300726 -0.0652462
7.45936 -0.96 -0.0303691 0.00011699 0.0303693 -0.0646396
7.52973 -0.96 -0.0306615 0.000115948 0.0306617 -0.0640192
7.6001 -0.96 -0.0309493 0.000114822 0.0309495 -0.0633849
7.67048 -0.96 -0.0312322 0.000113596 0.0312324 -0.0627362
7.74085 -0.96 -0.0315098 0.000112249 0.03151 -0.0620731
7.81122 -0.96 -0.0317816 0.000110761 0.0317818 -0.0613951
7.88159 -0.96 -0.0320472 0.000109107 0.0320474 -0.0607019
7.95196 -0.96 -0.032306 0.00010726 0.0323062 -0.0599933
8.02233 -0.96 -0.0325573 0.000105192 0.0325575 -0.059269
8.0927 -0.96 -0.0328004 0.000102873 0.0328006 -0.0585286
8.16307 -0.96 -0.0330345 0.000100269 0.0330346 -0.0577718
8.23345 -0.96 -0.0332586 9.7349e-05 0.0332587 -0.0569983
8.30382 -0.96 -0.0334718 9.4077e-05 0.0334719 -0.0562079
8.37419 -0.96 -0.033673 9.04191e-05 0.0336731 -0.0554003
8.44456 -0.96 -0.033861 8.63375e-05 0.0338611 -0.0545751
8.51493 -0.96 -0.0340346 8.17914e-05 0.0340347 -0.0537322
8.5853 -0.96 -0.0341923 7.67402e-05 0.0341924 -0.0528713
8.65567 -0.96 -0.0343327 7.11418e-05 0.0343328 -0.0519921
8.72605 -0.96 -0.0344543 6.49549e-05 0.0344543 -0.0510946
8.79642 -0.96 -0.0345552 5.81409e-05 0.0345553 -0.0501787
8.86679 -0.96 -0.0346339 5.06615e-05 0.0346339 -0.0492441
8.93716 -0.96 -0.0346884 4.24847e-05 0.0346884 -0.048291
9.00753 -0.96 -0.0347168 3.35774e-05 0.0347168 -0.0473193
9.0779 -0.96 -0.0347172 2.39049e-05 0.0347172 -0.0463292
9.14827 -0.96 -0.0346875 1.34393e-05 0.0346875 -0.0453208
9.21864 -0.96 -0.0346256 2.15416e-06 0.0346256 -0.0442944
9.28902 -0.96 -0.0345295 -9.96574e-06 0.0345295 -0.0432503
9.35939 -0.96 -0.0343969 -2.29332e-05 0.0343969 -0.042189
9.42976 -0.96 -0.0342257 -3.67447e-05 0.0342257 -0.041111
9.50013 -0.96 -0.0340139 -5.13953e-05 0.0340139 -0.0400169
9.5705 -0.96 -0.0337594 -6.68812e-05 0.0337595 -0.0389076
9.64087 -0.96 -0.0334603 -8.3186e-05 0.0334604 -0.0377838
9.71124 -0.96 -0.0331145 -0.000100285 0.0331146 -0.0366466
9.78162 -0.96 -0.0327203 -0.000118142 0.0327205 -0.035497
9.85199 -0.96 -0.0322759 -0.000136705 0.0322762 -0.0343363
9.92236 -0.96 -0.03178 -0.000155908 0.0317804 -0.0331659
9.99273 -0.96 -0.0312311 -0.000175695 0.0312316 -0.0319871
10.0631 -0.96 -0.0306281 -0.000196002 0.0306287 -0.0308016
10.1335 -0.96 -0.02997 -0.000216745 0.0299708 -0.029611
10.2038 -0.96 -0.0292561 -0.000237845 0.0292571 -0.0284172
10.2742 -0.96 -0.0284859 -0.000259185 0.0284871 -0.027222
10.3446 -0.96 -0.0276592 -0.00028065 0.0276607 -0.0260273
10.415 -0.96 -0.0267762 -0.000302158 0.0267779 -0.0248353
10.4853 -0.96 -0.0258371 -0.000323591 0.0258391 -0.0236481
10.5557 -0.96 -0.0248425 -0.000344852 0.0248449 -0.0224677
10.6261 -0.96 -0.0237934 -0.0003658 0.0237962 -0.0212965
10.6964 -0.96 -0.022691 -0.000386294 0.0226943 -0.0201365
10.7668 -0.96 -0.0215368 -0.000406245 0.0215407 -0.0189902
10.8372 -0.96 -0.0203326 -0.000425545 0.0203371 -0.0178595
10.9076 -0.96 -0.0190804 -0.000444096 0.0190856 -0.0167469
10.9779 -0.96 -0.0177825 -0.00046175 0.0177885 -0.0156543
11.0483 -0.96 -0.0164415 -0.000478402 0.0164484 -0.014584
11.1187 -0.96 -0.0150601 -0.000494006 0.0150682 -0.0135378
11.189 -0.96 -0.0136414 -0.000508484 0.0136509 -0.0125178
11.2594 -0.96 -0.0121884 -0.000521705 0.0121996 -0.0115257
11.3298 -0.96 -0.0107046 -0.000533587 0.0107179 -0.0105633
11.4002 -0.96 -0.00919342 -0.000544173 0.00920951 -0.00963214
11.4705 -0.96 -0.00765817 -0.000553355 0.00767813 -0.00873365
11.5409 -0.96 -0.00610274 -0.000561079 0.00612847 -0.00786915
11.6113 -0.96 -0.00453074 -0.000567467 0.00456614 -0.00703975
11.6816 -0.96 -0.00294578 -0.000572366 0.00300087 -0.00624645
11.752 -0.96 -0.00135163 -0.00057575 0.00146914 -0.00549003
11.8224 -0.96 0.000248242 -0.000577717 0.000628793 -0.00477117
11.8928 -0.96 0.0018502 -0.000578261 0.00193846 -0.00409039
11.9631 -0.96 0.00345068 -0.00057743 0.00349866 -0.00344799
12.0335 -0.96 0.00504648 -0.000575403 0.00507917 -0.00284416
12.1039 -0.96 0.00663433 -0.000572211 0.00665896 -0.00227893
12.1742 -0.96 0.00821132 -0.000567909 0.00823093 -0.00175214
12.2446 -0.96 0.00977457 -0.000562511 0.00979074 -0.0012636
12.315 -0.96 0.0113216 -0.000556168 0.0113352 -0.000812867
12.3854 -0.96 0.0128499 -0.00054888 0.0128616 -0.000399526
12.4557 -0.96 0.0143574 -0.000540857 0.0143676 -2.29024e-05
12.5261 -0.96 0.0158422 -0.000532058 0.0158511 0.00031758
12.5965 -0.96 0.0173028 -0.000522766 0.0173106 0.000622814
12.6668 -0.96 0.0187374 -0.000512864 0.0187444 0.000893454
12.7372 -0.96 0.0201455 -0.000502746 0.0201518 0.00113059
12.8076 -0.96 0.0215256 -0.000492162 0.0215312 0.00133487
12.878 -0.96 0.022878 -0.000481681 0.0228831 0.00150757
12.9483 -0.96 0.0242013 -0.000470828 0.0242059 0.00164921
13.0187 -0.96 0.0254972 -0.000460467 0.0255013 0.00176131
13.0891 -0.96 0.0267636 -0.000449735 0.0267674 0.00184405
13.1594 -0.96 0.0280042 -0.000440006 0.0280077 0.00189934
13.2298 -0.96 0.0292158 -0.000429735 0.029219 0.00192673
13.3002 -0.96 0.0304051 -0.000421212 0.030408 0.00192883
13.3706 -0.96 0.0315657 -0.00041166 0.0315683 0.00190398
13.4409 -0.96 0.0327103 -0.000405065 0.0327128 0.00185617
13.5113 -0.96 0.0338253 -0.000396351 0.0338276 0.00178144
13.5817 -0.96 0.0349359 -0.000392772 0.0349381 0.00168666
13.652 -0.96 0.0360112 -0.000384841 0.0360132 0.00156315
13.7224 -0.96 0.0371055 -0.000386427 0.0371075 0.00142429
13.7928 -0.96 0.0381453 -0.000379759 0.0381472 0.00125056
13.8632 -0.96 0.0392616 -0.000393388 0.0392635 0.0010715
13.9335 -0.96 0.0402617 -0.00040086 0.0402637 0.000838906
14.0039 -0.96 0.041529 -0.000468243 0.0415316 0.000629469
14.0743 -0.96 0.0424663 -0.000564644 0.04247 0.000292838
0 0.04 0.151756 -5.92992e-05 0.151756 -0.053134
0.0703713 0.04 0.15047 -0.000162342 0.15047 -0.0537386
0.140743 0.04 0.150755 -0.000192254 0.150755 -0.0549505
0.211114 0.04 0.151049 -0.00017124 0.151049 -0.0562145
0.281485 0.04 0.151405 -0.000160248 0.151406 -0.0575544
0.351857 0.04 0.151773 -0.000151565 0.151773 -0.0589449
0.422228 0.04 0.152147 -0.000145472 0.152147 -0.060376
0.492599 0.04 0.152518 -0.000141041 0.152518 -0.0618412
0.562971 0.04 0.152894 -0.00013906 0.152894 -0.0633357
0.633342 0.04 0.15327 -0.000138845 0.15327 -0.0648573
0.703713 0.04 0.153658 -0.000141459 0.153658 -0.0664036
0.774085 0.04 0.154054 -0.00014603 0.154054 -0.0679748
0.844456 0.04 0.154476 -0.000153955 0.154476 -0.0695699
0.914827 0.04 0.154916 -0.000164085 0.154916 -0.0711911
0.985199 0.04 0.1554 -0.000178295 0.1554 -0.0728385
1.05557 0.04 0.155917 -0.000195093 0.155917 -0.0745161
1.12594 0.04 0.156501 -0.000217111 0.156501 -0.0762248
1.19631 0.04 0.157132 -0.000242447 0.157132 -0.0779712
1.26668 0.04 0.157865 -0.000274932 0.157865 -0.0797566
1.33706 0.04 0.158664 -0.000312392 0.158664 -0.0815915
1.40743 0.04 0.159617 -0.000360627 0.159618 -0.0834773
1.4778 0.04 0.160659 -0.000417888 0.16066 -0.0854309
1.54817 0.04 0.161949 -0.000493384 0.161949 -0.087454
1.61854 0.04 0.163359 -0.000589744 0.16336 -0.0895759
1.68891 0.04 0.16521 -0.000723656 0.165212 -0.0917981
1.75928 0.04 0.167237 -0.000924436 0.167239 -0.0941803
1.82965 0.04 0.170218 -0.00124479 0.170223 -0.0967255
1.90003 0.04 0.173523 -0.00192003 0.173534 -0.0995867
1.9704 0.04 0.179842 -0.00346321 0.179876 -0.102677
2.04077 0.0384003 0.179287 -0.0092751 0.179527 -0.106315
2.11114 0.0279877 0.15308 -0.0173387 0.154058 -0.108723
2.18151 0.00724739 0.105725 -0.019663 0.107537 -0.107258
2.25188 -0.0253676 0.0529378 -0.0123181 0.054352 -0.102839
2.32225 -0.0730079 0.0117589 0.000549139 0.0117717 -0.0971282
2.39263 -0.129693 -0.00891592 0.00922712 0.012831 -0.0920039
2.463 -0.186379 -0.0149415 0.0117552 0.0190115 -0.0888023
2.53337 -0.243065 -0.015798 0.012199 0.0199598 -0.0868593
2.60374 -0.29975 -0.0155661 0.0119916 0.0196494 -0.0854892
2.67411 -0.356436 -0.0147935 0.0114407 0.0187013 -0.084537
2.74448 -0.413121 -0.0139823 0.0108795 0.0177163 -0.083827
2.81485 -0.469807 -0.0132182 0.0103665 0.0167984 -0.0832881
2.88522 -0.526493 -0.0125835 0.00994052 0.0160361 -0.082857
2.9556 -0.583178 -0.0120571 0.00955074 0.0153815 -0.0824983
3.02597 -0.639864 -0.0115544 0.0090931 0.0147033 -0.0821841
3.09634 -0.696549 -0.0109794 0.00844932 0.0138542 -0.0819111
3.16671 -0.753235 -0.0100879 0.0074346 0.0125315 -0.0816622
3.23708 -0.809904 -0.00898951 0.00598014 0.0107969 -0.0814822
3.30745 -0.856648 -0.00840604 0.0045042 0.00953674 -0.08141
3.37782 -0.888592 -0.00854754 0.00333087 0.00917361 -0.0813863
3.4482 -0.90877 -0.0091013 0.00239314 0.00941067 -0.0813792
3.51857 -0.918673 -0.0101709 0.0016668 0.0103066 -0.0813948
3.58894 -0.92 -0.0117965 0.00121506 0.011859 -0.0813913
3.65931 -0.92 -0.0134395 0.000995171 0.0134763 -0.0813601
3.72968 -0.92 -0.0148784 0.000879325 0.0149044 -0.0813254
3.80005 -0.92 -0.0162171 0.000811131 0.0162374 -0.0812761
3.87042 -0.92 -0.0174706 0.000767693 0.0174875 -0.0812174
3.94079 -0.92 -0.0186694 0.000736257 0.0186839 -0.0811477
4.01117 -0.92 -0.0198212 0.000711633 0.019834 -0.0810683
4.08154 -0.92 -0.0209361 0.00069095 0.0209475 -0.0809787
4.15191 -0.92 -0.022018 0.000672944 0.0220282 -0.0808792
4.22228 -0.92 -0.0230709 0.000656806 0.0230803 -0.0807698
4.29265 -0.92 -0.0240974 0.000642094 0.024106 -0.0806505
4.36302 -0.92 -0.0250997 0.000628494 0.0251076 -0.0805213
4.43339 -0.92 -0.0260793 0.000615802 0.0260866 -0.0803822
4.50377 -0.92 -0.0270377 0.000603864 0.0270444 -0.0802332
4.57414 -0.92 -0.027976 0.000592571 0.0279822 -0.0800744
4.64451 -0.92 -0.0288952 0.000581839 0.0289011 -0.0799056
4.71488 -0.92 -0.0297962 0.000571603 0.0298017 -0.0797269
4.78525 -0.92 -0.0306799 0.000561812 0.0306851 -0.0795384
4.85562 -0.92 -0.0315469 0.000552425 0.0315517 -0.0793398
4.92599 -0.92 -0.0323979 0.000543409 0.0324024 -0.0791314
4.99636 -0.92 -0.0332334 0.000534736 0.0332377 -0.078913
5.06674 -0.92 -0.0340541 0.000526385 0.0340582 -0.0786846
5.13711 -0.92 -0.0348605 0.000518335 0.0348643 -0.0784462
5.20748 -0.92 -0.0356529 0.000510569 0.0356566 -0.0781978
5.27785 -0.92 -0.0364319 0.000503074 0.0364354 -0.0779394
5.34822 -0.92 -0.037198 0.000495834 0.0372013 -0.0776709
5.41859 -0.92 -0.0379514 0.000488839 0.0379545 -0.0773923
5.48896 -0.92 -0.0386926 0.000482078 0.0386956 -0.0771036
5.55934 -0.92 -0.039422 0.000475541 0.0394249 -0.0768048
5.62971 -0.92 -0.0401399 0.000469218 0.0401426 -0.0764957
5.70008 -0.92 -0.0408465 0.000463101 0.0408492 -0.0761765
5.77045 -0.92 -0.0415424 0.000457182 0.0415449 -0.0758469
5.84082 -0.92 -0.0422276 0.000451453 0.04223 -0.0755071
5.91119 -0.92 -0.0429025 0.000445908 0.0429048 -0.0751568
5.98156 -0.92 -0.0435674 0.000440538 0.0435696 -0.0747961
6.05193 -0.92 -0.0442225 0.000435339 0.0442246 -0.0744249
6.12231 -0.92 -0.044868 0.000430302 0.0448701 -0.0740431
6.19268 -0.92 -0.0455042 0.000425419 0.0455062 -0.0736506
6.26305 -0.92 -0.0461313 0.000420684 0.0461332 -0.0732475
6.33342 -0.92 -0.0467494 0.000416086 0.0467513 -0.0728334
6.40379 -0.92 -0.0473588 0.000411615 0.0473606 -0.0724085
6.47416 -0.92 -0.0479595 0.000407261 0.0479612 -0.0719725
6.54453 -0.92 -0.0485517 0.000403012 0.0485533 -0.0715254
6.61491 -0.92 -0.0491354 0.000398854 0.049137 -0.071067
6.68528 -0.92 -0.0497108 0.000394774 0.0497124 -0.0705972
6.75565 -0.92 -0.0502779 0.000390755 0.0502795 -0.0701159
6.82602 -0.92 -0.0508368 0.000386782 0.0508382 -0.069623
6.89639 -0.92 -0.0513872 0.000382835 0.0513887 -0.0691181
6.96676 -0.92 -0.0519294 0.000378893 0.0519307 -0.0686013
7.03713 -0.92 -0.052463 0.000374933 0.0524643 -0.0680723
7.1075 -0.92 -0.052988 0.000370927 0.0529893 -0.067531
7.17788 -0.92 -0.0535042 0.000366843 0.0535055 -0.066977
7.24825 -0.92 -0.0540114 0.000362646 0.0540126 -0.0664104
7.31862 -0.92 -0.0545091 0.000358296 0.0545103 -0.0658307
7.38899 -0.92 -0.054997 0.000353751 0.0549982 -0.0652378
7.45936 -0.92 -0.0554748 0.000348964 0.0554759 -0.0646314
7.52973 -0.92 -0.0559417 0.000343884 0.0559427 -0.0640113
7.6001 -0.92 -0.0563972 0.000338456 0.0563982 -0.0633772
7.67048 -0.92 -0.0568405 0.00033262 0.0568415 -0.0627289
7.74085 -0.92 -0.0572709 0.000326312 0.0572719 -0.0620661
7.81122 -0.92 -0.0576875 0.000319459 0.0576884 -0.0613884
7.88159 -0.92 -0.0580891 0.000311982 0.0580899 -0.0606956
7.95196 -0.92 -0.0584745 0.000303794 0.0584753 -0.0599874
8.02233 -0.92 -0.0588426 0.000294803 0.0588434 -0.0592635
8.0927 -0.92 -0.0591918 0.000284914 0.0591925 -0.0585236
8.16307 -0.92 -0.0595206 0.000274025 0.0595212 -0.0577673
8.23345 -0.92 -0.0598272 0.000262034 0.0598278 -0.0569944
8.30382 -0.92 -0.0601097 0.000248835 0.0601102 -0.0562046
8.37419 -0.92 -0.0603661 0.000234322 0.0603666 -0.0553976
8.44456 -0.92 -0.0605942 0.000218381 0.0605946 -0.0545731
8.51493 -0.92 -0.0607917 0.000200891 0.0607921 -0.0537309
8.5853 -0.92 -0.0609561 0.000181733 0.0609563 -0.0528708
8.65567 -0.92 -0.0610846 0.000160786 0.0610848 -0.0519925
8.72605 -0.92 -0.0611745 0.000137935 0.0611747 -0.0510959
8.79642 -0.92 -0.0612229 0.000113071 0.061223 -0.0501808
8.86679 -0.92 -0.0612265 8.60926e-05 0.0612266 -0.0492473
8.93716 -0.92 -0.0611824 5.69143e-05 0.0611824 -0.0482953
9.00753 -0.92 -0.0610871 2.5451e-05 0.0610871 -0.0473248
9.0779 -0.92 -0.0609374 -8.38358e-06 0.0609374 -0.0463358
9.14827 -0.92 -0.0607298 -4.46547e-05 0.0607298 -0.0453287
9.21864 -0.92 -0.0604608 -8.34177e-05 0.0604609 -0.0443037
9.28902 -0.92 -0.060127 -0.000124697 0.0601271 -0.043261
9.35939 -0.92 -0.0597248 -0.000168503 0.0597251 -0.0422011
9.42976 -0.92 -0.0592509 -0.000214803 0.0592513 -0.0411247
9.50013 -0.92 -0.0587021 -0.000263557 0.0587026 -0.0400322
9.5705 -0.92 -0.058075 -0.000314727 0.0580758 -0.0389245
9.64087 -0.92 -0.0573666 -0.000368236 0.0573678 -0.0378024
9.71124 -0.92 -0.056574 -0.000423982 0.0565756 -0.0366669
9.78162 -0.92 -0.0556946 -0.000481828 0.0556966 -0.0355191
9.85199 -0.92 -0.0547258 -0.000541593 0.0547285 -0.0343602
9.92236 -0.92 -0.0536657 -0.000603065 0.0536691 -0.0331916
9.99273 -0.92 -0.0525125 -0.000666049 0.0525167 -0.0320147
10.0631 -0.92 -0.0512646 -0.000730335 0.0512698 -0.030831
10.1335 -0.92 -0.049921 -0.000795659 0.0499273 -0.0296423
10.2038 -0.92 -0.0484809 -0.000861757 0.0484886 -0.0284503
10.2742 -0.92 -0.0469441 -0.000928279 0.0469533 -0.027257
10.3446 -0.92 -0.0453108 -0.000994879 0.0453217 -0.0260642
10.415 -0.92 -0.0435817 -0.00106129 0.0435946 -0.024874
10.4853 -0.92 -0.0417579 -0.00112718 0.0417731 -0.0236885
10.5557 -0.92 -0.0398407 -0.00119224 0.0398586 -0.0225098
10.6261 -0.92 -0.0378323 -0.00125607 0.0378532 -0.0213402
10.6964 -0.92 -0.0357352 -0.00131826 0.0357595 -0.0201819
10.7668 -0.92 -0.0335523 -0.00137855 0.0335807 -0.0190371
10.8372 -0.92 -0.0312871 -0.00143665 0.0313201 -0.0179079